# vtk DataFile Version 3.0
PyPan mesh file. Generated by PyPan, USU AeroLab (c) 2020.
ASCII
DATASET POLYDATA
POINTS 3562 float
-4.79848623276      -3.0                0.0                 
-4.79848623276      3.0                 0.0                 
-4.79433488846      -2.99396133423      0.0                 
-4.79433488846      2.99396133423       0.0                 
-4.79270172119      -3.00037121773      0.0                 
-4.79270172119      3.00037121773       0.0                 
-4.79269742966      -3.00036668777      -5.808844071e-05    
-4.79269742966      -3.00036668777      5.808844071e-05     
-4.79269742966      3.00036668777       -5.808844071e-05    
-4.79269742966      3.00036668777       5.808844071e-05     
-4.79268360138      -3.00035309792      -0.000114746551844  
-4.79268360138      -3.00035309792      0.000114746551844   
-4.79268360138      3.00035309792       -0.000114746551844  
-4.79268360138      3.00035309792       0.000114746551844   
-4.79266166687      -3.00033092499      -0.0001685792231    
-4.79266166687      -3.00033092499      0.0001685792231     
-4.79266166687      3.00033092499       -0.0001685792231    
-4.79266166687      3.00033092499       0.0001685792231     
-4.79263114929      -3.00030040741      -0.000218260916881  
-4.79263114929      -3.00030040741      0.000218260916881   
-4.79263114929      3.00030040741       -0.000218260916881  
-4.79263114929      3.00030040741       0.000218260916881   
-4.79259300232      -3.00026249886      -0.00026256829733   
-4.79259300232      -3.00026249886      0.00026256829733    
-4.79259300232      3.00026249886       -0.00026256829733   
-4.79259300232      3.00026249886       0.00026256829733    
-4.79254865646      -3.000218153        -0.000300410378259  
-4.79254865646      -3.000218153        0.000300410378259   
-4.79254865646      3.000218153         -0.000300410378259  
-4.79254865646      3.000218153         0.000300410378259   
-4.7924990654       -3.00016856194      -0.000330855342327  
-4.7924990654       -3.00016856194      0.000330855342327   
-4.7924990654       3.00016856194       -0.000330855342327  
-4.7924990654       3.00016856194       0.000330855342327   
-4.7924451828       -3.00011467934      -0.000353153562173  
-4.7924451828       -3.00011467934      0.000353153562173   
-4.7924451828       3.00011467934       -0.000353153562173  
-4.7924451828       3.00011467934       0.000353153562173   
-4.79238891602      -3.00005817413      -0.000366755994037  
-4.79238891602      -3.00005817413      0.000366755994037   
-4.79238891602      3.00005817413       -0.000366755994037  
-4.79238891602      3.00005817413       0.000366755994037   
-4.79233074188      -3.0                -0.000371327652829  
-4.79233074188      -3.0                0.000371327652829   
-4.79233074188      3.0                 -0.000371327652829  
-4.79233074188      3.0                 0.000371327652829   
-4.78816366196      -2.99396133423      -0.00037226191489   
-4.78816366196      -2.99396133423      0.00037226191489    
-4.78816366196      2.99396133423       -0.00037226191489   
-4.78816366196      2.99396133423       0.00037226191489    
-4.78191375732      -2.97589445114      0.0                 
-4.78191375732      2.97589445114       0.0                 
-4.77569627762      -2.97589445114      -0.000375057250494  
-4.77569627762      -2.97589445114      0.000375057250494   
-4.77569627762      2.97589445114       -0.000375057250494  
-4.77569627762      2.97589445114       0.000375057250494   
-4.77547359467      -3.00145888329      0.0                 
-4.77547359467      3.00145888329       0.0                 
-4.77545547485      -3.00144100189      -0.000228222386795  
-4.77545547485      -3.00144100189      0.000228222386795   
-4.77545547485      3.00144100189       -0.000228222386795  
-4.77545547485      3.00144100189       0.000228222386795   
-4.77540206909      -3.00138759613      -0.000450825173175  
-4.77540206909      -3.00138759613      0.000450825173175   
-4.77540206909      3.00138759613       -0.000450825173175  
-4.77540206909      3.00138759613       0.000450825173175   
-4.77531480789      -3.00129985809      -0.00066232716199   
-4.77531480789      -3.00129985809      0.00066232716199    
-4.77531480789      3.00129985809       -0.00066232716199   
-4.77531480789      3.00129985809       0.00066232716199    
-4.77519512177      -3.00118017197      -0.000857520441059  
-4.77519512177      -3.00118017197      0.000857520441059   
-4.77519512177      3.00118017197       -0.000857520441059  
-4.77519512177      3.00118017197       0.000857520441059   
-4.77504634857      -3.00103163719      -0.00103159877472   
-4.77504634857      -3.00103163719      0.00103159877472    
-4.77504634857      3.00103163719       -0.00103159877472   
-4.77504634857      3.00103163719       0.00103159877472    
-4.77487230301      -3.00085759163      -0.0011802756926    
-4.77487230301      -3.00085759163      0.0011802756926     
-4.77487230301      3.00085759163       -0.0011802756926    
-4.77487230301      3.00085759163       0.0011802756926     
-4.77467679977      -3.00066232681      -0.00129989022389   
-4.77467679977      -3.00066232681      0.00129989022389    
-4.77467679977      3.00066232681       -0.00129989022389   
-4.77467679977      3.00066232681       0.00129989022389    
-4.77446556091      -3.00045084953      -0.00138749729376   
-4.77446556091      -3.00045084953      0.00138749729376    
-4.77446556091      3.00045084953       -0.00138749729376   
-4.77446556091      3.00045084953       0.00138749729376    
-4.77424287796      -3.00022816658      -0.00144093949348   
-4.77424287796      -3.00022816658      0.00144093949348    
-4.77424287796      3.00022816658       -0.00144093949348   
-4.77424287796      3.00022816658       0.00144093949348    
-4.77401447296      -3.0                -0.00145890098065   
-4.77401447296      -3.0                0.00145890098065    
-4.77401447296      3.0                 -0.00145890098065   
-4.77401447296      3.0                 0.00145890098065    
-4.76980161667      -2.99396133423      -0.00146257167216   
-4.76980161667      -2.99396133423      0.00146257167216    
-4.76980161667      2.99396133423       -0.00146257167216   
-4.76980161667      2.99396133423       0.00146257167216    
-4.76132297516      -2.94594430923      0.0                 
-4.76132297516      2.94594430923       0.0                 
-4.75719642639      -2.97589445114      -0.00147355417721   
-4.75719642639      -2.97589445114      0.00147355417721    
-4.75719642639      2.97589445114       -0.00147355417721   
-4.75719642639      2.97589445114       0.00147355417721    
-4.75502872467      -2.94594430923      -0.000379691133276  
-4.75502872467      -2.94594430923      0.000379691133276   
-4.75502872467      2.94594430923       -0.000379691133276  
-4.75502872467      2.94594430923       0.000379691133276   
-4.74717760086      -3.00318789482      0.0                 
-4.74717760086      3.00318789482       0.0                 
-4.74713850021      -3.00314855576      -0.000498688430525  
-4.74713850021      -3.00314855576      0.000498688430525   
-4.74713850021      3.00314855576       -0.000498688430525  
-4.74713850021      3.00314855576       0.000498688430525   
-4.74702167511      -3.00303173065      -0.00098509748932   
-4.74702167511      -3.00303173065      0.00098509748932    
-4.74702167511      3.00303173065       -0.00098509748932   
-4.74702167511      3.00303173065       0.00098509748932    
-4.74682998657      -3.00284028053      -0.00144725013524   
-4.74682998657      -3.00284028053      0.00144725013524    
-4.74682998657      3.00284028053       -0.00144725013524   
-4.74682998657      3.00284028053       0.00144725013524    
-4.74656867981      -3.00257897377      -0.00187376677059   
-4.74656867981      -3.00257897377      0.00187376677059    
-4.74656867981      3.00257897377       -0.00187376677059   
-4.74656867981      3.00257897377       0.00187376677059    
-4.7462439537       -3.00225424767      -0.00225414498709   
-4.7462439537       -3.00225424767      0.00225414498709    
-4.7462439537       3.00225424767       -0.00225414498709   
-4.7462439537       3.00225424767       0.00225414498709    
-4.74586343765      -3.00187373161      -0.00257901870646   
-4.74586343765      -3.00187373161      0.00257901870646    
-4.74586343765      3.00187373161       -0.00257901870646   
-4.74586343765      3.00187373161       0.00257901870646    
-4.74543714523      -3.00144720078      -0.00284038833342   
-4.74543714523      -3.00144720078      0.00284038833342    
-4.74543714523      3.00144720078       -0.00284038833342   
-4.74543714523      3.00144720078       0.00284038833342    
-4.74497461319      -3.00098514557      -0.00303181819618   
-4.74497461319      -3.00098514557      0.00303181819618    
-4.74497461319      3.00098514557       -0.00303181819618   
-4.74497461319      3.00098514557       0.00303181819618    
-4.74448823929      -3.00049877167      -0.00314859463833   
-4.74448823929      -3.00049877167      0.00314859463833    
-4.74448823929      3.00049877167       -0.00314859463833   
-4.74448823929      3.00049877167       0.00314859463833    
-4.74398994446      -3.0                -0.00318784243427   
-4.74398994446      -3.0                0.00318784243427    
-4.74398994446      3.0                 -0.00318784243427   
-4.74398994446      3.0                 0.00318784243427    
-4.73970127106      -2.99396133423      -0.00319586321712   
-4.73970127106      -2.99396133423      0.00319586321712    
-4.73970127106      2.99396133423       -0.00319586321712   
-4.73970127106      2.99396133423       0.00319586321712    
-4.73629999161      -2.94594430923      -0.00149176002014   
-4.73629999161      -2.94594430923      0.00149176002014    
-4.73629999161      2.94594430923       -0.00149176002014   
[...]
CELL_DATA 7120
SCALARS panel_area float 1
LOOKUP_TABLE default
9.32691541806e-05   
9.27063519463e-05   
0.000277480768268   
0.000275804797861   
0.000454779455245   
0.000452034249887   
0.000620785665001   
0.000617036601828   
0.000771423562752   
0.000766765155123   
0.000903021585122   
0.000897568077769   
0.00101238262646    
0.00100626916166    
0.00109686255217    
0.0010902393896     
0.00115444952711    
0.00114747860024    
0.00118384142555    
0.00117669250977    
0.00118452741146    
0.00117737464306    
0.00115687269736    
0.00114988696863    
0.00110218887218    
0.00109553306215    
0.00102277547663    
0.00101659937203    
0.000921923066045   
0.000916356096901   
0.000803972987886   
0.000799117951632   
0.000674790055542   
0.000670715446307   
0.000543542143498   
0.000540259433371   
0.000427748497346   
0.000425165480745   
0.000362129959156   
0.000359943415559   
0.000362129959156   
0.000359943415559   
0.000427748497346   
0.000425165480745   
0.000543542143498   
0.000540259433371   
0.000674790055542   
0.000670715446307   
0.000803972987886   
0.000799117951632   
0.000921923066045   
0.000916356096901   
0.00102277547663    
0.00101659937203    
0.00110218887218    
0.00109553306215    
0.00115687269736    
0.00114988696863    
0.00118452741146    
0.00117737464306    
0.00118384142555    
0.00117669250977    
0.00115444952711    
0.00114747860024    
0.00109686255217    
0.0010902393896     
0.00101238262646    
0.00100626916166    
0.000903021585122   
0.000897568077769   
0.000771423562752   
0.000766765155123   
0.000620785665001   
0.000617036601828   
0.000454779455245   
0.000452034249887   
0.000277480768268   
0.000275804797861   
9.32691541806e-05   
9.27063519463e-05   
0.000277372637765   
0.000272329618225   
0.000825193809515   
0.000810196120568   
0.00135246310047    
0.00132787805306    
0.00184614169673    
0.00181258394634    
0.00229412180712    
0.0022524232301     
0.0026854776483     
0.00263666437173    
0.00301070571176    
0.00295598064257    
0.0032619404696     
0.00320264830965    
0.00343319704625    
0.00337079295142    
0.0035206035422     
0.00345661032858    
0.00352264438994    
0.00345861385914    
0.00344040294191    
0.00337786739165    
0.00327777896164    
0.00321819948964    
0.00304161296663    
0.00298632611562    
0.00274169036994    
0.0026918548156     
0.00239092005602    
0.00234746137437    
0.00200674582846    
0.0019702692636     
0.00161642850545    
0.00158704710887    
0.00127207086241    
0.00124894970795    
0.0010769290558     
0.00105735353782    
0.0010769290558     
0.00105735353782    
0.00127207086241    
0.00124894970795    
0.00161642850545    
0.00158704710887    
0.00200674582846    
0.0019702692636     
0.00239092005602    
0.00234746137437    
0.00274169036994    
0.0026918548156     
0.00304161296663    
0.00298632611562    
0.00327777896164    
0.00321819948964    
0.00344040294191    
0.00337786739165    
0.00352264438994    
0.00345861385914    
0.0035206035422     
0.00345661032858    
0.00343319704625    
0.00337079295142    
0.0032619404696     
0.00320264830965    
0.00301070571176    
0.00295598064257    
0.0026854776483     
0.00263666437173    
0.00229412180712    
0.0022524232301     
0.00184614169673    
0.00181258394634    
0.00135246310047    
0.00132787805306    
0.000825193809515   
0.000810196120568   
0.000277372637765   
0.000272329618225   
0.000451445774743   
0.00043759261664    
0.00134307684992    
0.00130185519332    
0.00220124763686    
0.00213369036141    
0.00300475343595    
0.00291254064028    
0.00373388301662    
0.00361929004124    
0.00437084652188    
0.00423670517297    
0.00490018293492    
0.00474979745468    
0.00530908840177    
0.00514615254218    
0.00558782481011    
0.00541633505804    
0.00573008575356    
0.00555423054357    
0.00573340730012    
0.00555744933768    
0.00559955216097    
0.00542770157808    
0.00533486779956    
0.00517114136973    
0.00495048725669    
0.0047985574726     
0.00446233666032    
0.00432538843273    
0.003891429029      
0.00377200079034    
0.0032661512637     
0.00316591355695    
0.00263087669059    
0.00255013611634    
0.00207040735935    
0.00200686545892    
0.00175279682712    
0.00169900355395    
0.00175279682712    
0.00169900355395    
0.00207040735935    
0.00200686545892    
0.00263087669059    
0.00255013611634    
0.0032661512637     
0.00316591355695    
0.003891429029      
0.00377200079034    
0.00446233666032    
0.00432538843273    
0.00495048725669    
0.0047985574726     
0.00533486779956    
0.00517114136973    
0.00559955216097    
0.00542770157808    
0.00573340730012    
0.00555744933768    
0.00573008575356    
0.00555423054357    
0.00558782481011    
0.00541633505804    
0.00530908840177    
0.00514615254218    
0.00490018293492    
0.00474979745468    
0.00437084652188    
0.00423670517297    
0.00373388301662    
0.00361929004124    
0.00300475343595    
0.00291254064028    
0.00220124763686    
0.00213369036141    
0.00134307684992    
0.00130185519332    
0.000451445774743   
0.00043759261664    
0.000607689111762   
0.00058096690738    
0.0018078989561     
0.00172840790553    
0.00296307656713    
0.00283279476859    
0.00404467345497    
0.00386683213556    
0.00502614319073    
0.00480515226297    
0.00588355361317    
0.00562486065023    
0.00659608985823    
0.006306068321      
0.00714651203405    
0.00683229056799    
0.00752171710638    
0.00719099343682    
0.00771321393323    
0.00737407250302    
0.00771768378101    
0.00737834940085    
0.007537501866      
0.00720608768751    
0.00718121432306    
0.00686546466865    
0.00666380336338    
0.00637080408534    
0.00600670884754    
0.00574260117909    
0.00523821447359    
0.00500789677789    
0.0043965346845     
0.00420322491632    
0.00354139880264    
0.00338568780668    
0.00278695394009    
0.00266441514837    
0.00235942157429    
0.00225568134236    
0.00235942157429    
0.00225568134236    
0.00278695394009    
0.00266441514837    
0.00354139880264    
0.00338568780668    
0.0043965346845     
0.00420322491632    
0.00523821447359    
0.00500789677789    
0.00600670884754    
0.00574260117909    
0.00666380336338    
0.00637080408534    
0.00718121432306    
0.00686546466865    
0.007537501866      
0.00720608768751    
0.00771768378101    
0.00737834940085    
0.00771321393323    
0.00737407250302    
0.00752171710638    
0.00719099343682    
0.00714651203405    
0.00683229056799    
0.00659608985823    
0.006306068321      
0.00588355361317    
0.00562486065023    
0.00502614319073    
0.00480515226297    
0.00404467345497    
0.00386683213556    
0.00296307656713    
0.00283279476859    
0.0018078989561     
0.00172840790553    
0.000607689111762   
0.00058096690738    
0.000738906099724   
0.000695685257536   
0.00219828553091    
0.00206970051064    
0.00360290630209    
0.00339215789164    
0.00491805270839    
0.0046303800551     
0.00611146056422    
0.00575397312318    
0.0071540113304     
0.00673555220646    
0.00802040921225    
0.00755125957094    
0.0086896879758     
0.00818139397764    
0.00914590622054    
0.00861093000184    
0.0093787564561     
0.00883015757908    
0.00938419623677    
0.00883527618454    
0.00916510413646    
0.00862900353381    
0.00873188068035    
0.00822112174782    
0.00810274369292    
0.00762878277054    
0.00730376041105    
0.0068765356761     
0.0063693222205     
0.00599675664768    
0.00534589583419    
0.00503319469541    
0.00430610695513    
0.00405422402647    
0.00338875179833    
0.00319053178686    
0.00286890101049    
0.00270108864507    
0.00286890101049    
0.00270108864507    
0.00338875179833    
0.00319053178686    
0.00430610695513    
0.00405422402647    
0.00534589583419    
0.00503319469541    
0.0063693222205     
0.00599675664768    
0.00730376041105    
0.0068765356761     
0.00810274369292    
0.00762878277054    
0.00873188068035    
0.00822112174782    
0.00916510413646    
0.00862900353381    
0.00938419623677    
0.00883527618454    
0.0093787564561     
0.00883015757908    
0.00914590622054    
0.00861093000184    
0.0086896879758     
0.00818139397764    
0.00802040921225    
0.00755125957094    
0.0071540113304     
0.00673555220646    
0.00611146056422    
0.00575397312318    
0.00491805270839    
0.0046303800551     
0.00360290630209    
0.00339215789164    
0.00219828553091    
0.00206970051064    
0.000738906099724   
0.000695685257536   
0.00083878490328    
0.000775952352218   
0.0024954295272     
0.00230850159963    
0.00408991103517    
0.00378354951636    
0.00558283046546    
0.00516463718089    
0.00693754216263    
0.0064178677386     
0.00812102799227    
0.00751269733419    
0.00910452304046    
0.00842253186781    
0.00986427372317    
0.00912537318033    
0.0103821635898     
0.00960446015698    
0.010646485396      
0.00984898309375    
0.0106526567446     
0.00985469603072    
0.0104039545691     
0.00962462262414    
0.00991217316959    
0.00916967529874    
0.00919799262817    
0.00850899640136    
0.00829101136027    
0.00766995404845    
0.00723026506687    
0.00668866495994    
0.00606850261017    
0.0056139270872     
0.00488816126234    
0.00452200263918    
0.00384681052414    
0.00355865633336    
0.00325669167326    
0.00301274070008    
0.00325669167326    
0.00301274070008    
0.00384681052414    
0.00355865633336    
0.00488816126234    
0.00452200263918    
0.00606850261017    
0.0056139270872     
0.00723026506687    
0.00668866495994    
0.00829101136027    
0.00766995404845    
0.00919799262817    
0.00850899640136    
0.00991217316959    
0.00916967529874    
0.0104039545691     
0.00962462262414    
0.0106526567446     
0.00985469603072    
0.010646485396      
0.00984898309375    
0.0103821635898     
0.00960446015698    
0.00986427372317    
0.00912537318033    
0.00910452304046    
0.00842253186781    
0.00812102799227    
0.00751269733419    
0.00693754216263    
0.0064178677386     
0.00558283046546    
0.00516463718089    
0.00408991103517    
0.00378354951636    
0.0024954295272     
0.00230850159963    
0.00083878490328    
0.000775952352218   
0.00090208480111    
0.000817168913765   
0.00268375269798    
0.00243111776867    
0.00439857229359    
0.00398451723117    
0.00600415825872    
0.00543895179126    
0.00746110367806    
0.00675874876382    
0.00873389984922    
0.00791174076164    
0.00979162966125    
0.00886989141021    
0.0106087189713     
0.00961005946766    
0.0111656823945     
0.0101146051279     
0.0114499529915     
0.0103721147014     
0.0114565945085     
0.0103781226242     
0.0111891223765     
0.0101358346318     
0.0106602225359     
0.00965672047763    
0.00989214911098    
0.00896095063147    
0.00891671880794    
0.00807734215187    
0.00777591956439    
0.00704393230576    
0.00652648106971    
0.0059121101222     
0.00525706260314    
0.00476218935498    
0.00413712310219    
0.00374767355481    
0.00350246784687    
0.00317276310954    
0.00350246784687    
0.00317276310954    
0.00413712310219    
0.00374767355481    
0.00525706260314    
0.00476218935498    
0.00652648106971    
0.0059121101222     
0.00777591956439    
0.00704393230576    
0.00891671880794    
0.00807734215187    
0.00989214911098    
0.00896095063147    
0.0106602225359     
0.00965672047763    
0.0111891223765     
0.0101358346318     
0.0114565945085     
0.0103781226242     
0.0114499529915     
0.0103721147014     
0.0111656823945     
0.0101146051279     
0.0106087189713     
0.00961005946766    
0.00979162966125    
0.00886989141021    
0.00873389984922    
0.00791174076164    
0.00746110367806    
0.00675874876382    
0.00600415825872    
0.00543895179126    
0.00439857229359    
0.00398451723117    
0.00268375269798    
0.00243111776867    
0.00090208480111    
0.000817168913765   
0.000924849208497   
0.000816072974563   
0.00275147193643    
0.00242786974456    
0.00450956651177    
0.0039791916437     
0.00615565539135    
0.00543168848762    
0.0076493652002     
0.00674972256633    
0.00895428965307    
0.00790116534512    
0.0100386980964     
0.00885804166014    
0.0108763999096     
0.00959721804927    
0.0114474307412     
0.0101010853767     
0.0117388728388     
0.0103582505365     
0.0117456724342     
0.0103642548154     
0.0114714576927     
0.0101222914314     
0.0109292095558     
0.00964381893535    
0.0101417564055     
0.00894897451108    
0.00914171271139    
0.0080665487423     
0.00797212794515    
0.00703451943664    
0.00669116273125    
0.00590420948538    
0.00538971393753    
0.00475582523925    
0.00424151286731    
0.00374266534816    
0.00359084465057    
0.00316852265038    
0.00359084465057    
0.00316852265038    
0.00424151286731    
0.00374266534816    
0.00538971393753    
0.00475582523925    
0.00669116273125    
0.00590420948538    
0.00797212794515    
0.00703451943664    
0.00914171271139    
0.0080665487423     
0.0101417564055     
0.00894897451108    
0.0109292095558     
0.00964381893535    
0.0114714576927     
0.0101222914314     
0.0117456724342     
0.0103642548154     
0.0117388728388     
0.0103582505365     
0.0114474307412     
0.0101010853767     
0.0108763999096     
0.00959721804927    
0.0100386980964     
0.00885804166014    
0.00895428965307    
0.00790116534512    
0.0076493652002     
0.00674972256633    
0.00615565539135    
0.00543168848762    
0.00450956651177    
0.0039791916437     
0.00275147193643    
0.00242786974456    
0.000924849208497   
0.000816072974563   
0.000904517586037   
0.000770898656741   
0.00269099818323    
0.00229344617702    
0.00441044972628    
0.00375888086902    
0.00602036568849    
0.00513096012115    
0.00748124601712    
0.00637603086632    
0.00875748027976    
0.0074637077621     
0.00981806116711    
0.00836761740151    
0.0106373482199     
0.00906587805356    
0.0111958238425     
0.00954183973543    
0.0114808602459     
0.00978477074862    
0.0114875153095     
0.00979044266057    
0.0112193282749     
0.00956186708056    
0.0106889997078     
0.00910989343952    
0.00991884916136    
0.00845351813729    
0.0089407876354     
0.00761994307337    
0.00779690877148    
0.00664505729443    
0.00654409775055    
0.00557732210556    
0.00527125376557    
0.00449252003517    
0.00414828930826    
0.00353545394608    
0.00351192202652    
0.00299309821358    
0.00351192202652    
0.00299309821358    
0.00414828930826    
0.00353545394608    
0.00527125376557    
0.00449252003517    
0.00654409775055    
0.00557732210556    
0.00779690877148    
0.00664505729443    
0.0089407876354     
0.00761994307337    
0.00991884916136    
0.00845351813729    
0.0106889997078     
0.00910989343952    
0.0112193282749     
0.00956186708056    
0.0114875153095     
0.00979044266057    
0.0114808602459     
0.00978477074862    
0.0111958238425     
0.00954183973543    
0.0106373482199     
0.00906587805356    
0.00981806116711    
0.00836761740151    
0.00875748027976    
0.0074637077621     
0.00748124601712    
0.00637603086632    
0.00602036568849    
0.00513096012115    
0.00441044972628    
0.00375888086902    
0.00269099818323    
0.00229344617702    
0.000904517586037   
0.000770898656741   
0.000840070925133   
0.000681377583063   
0.0024992357071     
0.00202714894212    
0.00409616298599    
0.0033224337095     
0.00559135813595    
0.00453518362459    
0.00694814830151    
0.00563567667056    
0.00813342181238    
0.00659708337946    
0.00911843878129    
0.00739602166983    
0.0098793539279     
0.008013195364      
0.010398023334      
0.00843390247472    
0.0106627523751     
0.0086486196584     
0.0106689332379     
0.00865364509989    
0.010419847714      
0.00845160436038    
0.00992731877191    
0.00805210479624    
0.00921204730823    
0.00747194810741    
0.0083036760751     
0.00673517033799    
0.00724131443241    
0.00587346792037    
0.00607777209727    
0.00492972561731    
0.00489563133954    
0.00397087530805    
0.00385268851129    
0.00312493840196    
0.00326166786567    
0.0026455587958     
0.00326166786567    
0.0026455587958     
0.00385268851129    
0.00312493840196    
0.00489563133954    
0.00397087530805    
0.00607777209727    
0.00492972561731    
0.00724131443241    
0.00587346792037    
0.0083036760751     
0.00673517033799    
0.00921204730823    
0.00747194810741    
0.00992731877191    
0.00805210479624    
0.010419847714      
0.00845160436038    
0.0106689332379     
0.00865364509989    
0.0106627523751     
0.0086486196584     
0.010398023334      
0.00843390247472    
0.0098793539279     
0.008013195364      
0.00911843878129    
0.00739602166983    
0.00813342181238    
0.00659708337946    
0.00694814830151    
0.00563567667056    
0.00559135813595    
0.00453518362459    
0.00409616298599    
0.0033224337095     
0.0024992357071     
0.00202714894212    
0.000840070925133   
0.000681377583063   
0.000730693684888   
0.000661235713325   
0.00217398369116    
0.00196732527875    
0.0035634088879     
0.003224679923      
0.00486459643705    
0.00440217630013    
0.00604550815718    
0.005470833013      
0.00707711974674    
0.00640437517454    
0.00793408063379    
0.00717988506647    
0.00859539960992    
0.00777834783251    
0.00904491665065    
0.00818512150274    
0.00927179278854    
0.00839043156962    
0.00927099984112    
0.00838971522742    
0.00904357632234    
0.00818390858287    
0.00859695539545    
0.00777974924804    
0.00794482464372    
0.00718960778441    
0.00710689483603    
0.0064313198717     
0.00610881656053    
0.00552812994482    
0.00498365339119    
0.0045099100667     
0.00377862117953    
0.00341943333773    
0.00258480979213    
0.00233910521247    
0.00168118854598    
0.00152137847183    
0.00168118854598    
0.00152137847183    
0.00258480979213    
0.00233910521247    
0.00377862117953    
0.00341943333773    
0.00498365339119    
0.0045099100667     
0.00610881656053    
0.00552812994482    
0.00710689483603    
0.0064313198717     
0.00794482464372    
0.00718960778441    
0.00859695539545    
0.00777974924804    
0.00904357632234    
0.00818390858287    
0.00927099984112    
0.00838971522742    
0.00927179278854    
0.00839043156962    
0.00904491665065    
0.00818512150274    
0.00859539960992    
0.00777834783251    
0.00793408063379    
0.00717988506647    
0.00707711974674    
0.00640437517454    
0.00604550815718    
0.005470833013      
0.00486459643705    
0.00440217630013    
0.0035634088879     
0.003224679923      
0.00217398369116    
0.00196732527875    
0.000730693684888   
0.000661235713325   
0.000702213284655   
0.000685060460676   
0.00208918983934    
0.00203812247697    
0.00342426879705    
0.00334054131376    
0.00467434937823    
0.00456007622061    
0.00580865153723    
0.00566665193882    
0.00679930105418    
0.00663309591896    
0.00762199518653    
0.00743565417095    
0.00825655704133    
0.008054712102      
0.00868741408257    
0.00847503904604    
0.00890409841434    
0.00868642476025    
0.00890156620165    
0.00868395478712    
0.00868041930746    
0.00846821527152    
0.00824711151366    
0.00804549731766    
0.00761365904697    
0.00742752870266    
0.0067973711733     
0.00663119945367    
0.0058205655191     
0.00567827483134    
0.00471089196983    
0.00459573233794    
0.00350438012921    
0.00341870766265    
0.00226099974211    
0.00220572554045    
0.00118312466988    
0.00115420164479    
0.00118312466988    
0.00115420164479    
0.00226099974211    
0.00220572554045    
0.00350438012921    
0.00341870766265    
0.00471089196983    
0.00459573233794    
0.0058205655191     
0.00567827483134    
0.0067973711733     
0.00663119945367    
0.00761365904697    
0.00742752870266    
0.00824711151366    
0.00804549731766    
0.00868041930746    
0.00846821527152    
0.00890156620165    
0.00868395478712    
0.00890409841434    
0.00868642476025    
0.00868741408257    
0.00847503904604    
0.00825655704133    
0.008054712102      
0.00762199518653    
0.00743565417095    
0.00679930105418    