# vtk DataFile Version 3.0
PyPan mesh file. Generated by PyPan, USU AeroLab (c) 2020.
ASCII
DATASET POLYDATA
POINTS 2042 float
7.30907575687e-17   9.25185831796e-17   0.0                 
0.00856175273657    -0.0667678713799    -7.58139982726e-18  
0.00856175273657    -0.0641837194562    -0.0167538467795    
0.00856175273657    -0.0641837194562    0.0167538467795     
0.00856175273657    -0.0570148527622    -0.032424531877     
0.00856175273657    -0.0570148527622    0.032424531877      
0.00856175273657    -0.046136662364     -0.046136662364     
0.00856175273657    -0.046136662364     0.046136662364      
0.00856175273657    -0.032424531877     -0.0570148527622    
0.00856175273657    -0.032424531877     0.0570148527622     
0.00856175273657    -0.0167538467795    -0.0641837194562    
0.00856175273657    -0.0167538467795    0.0641837194562     
0.00856175273657    -8.52907501247e-18  0.0667678713799     
0.00856175273657    -7.58139982726e-18  -0.0667678713799    
0.00856175273657    0.0167538467795     -0.0641837194562    
0.00856175273657    0.0167538467795     0.0641837194562     
0.00856175273657    0.032424531877      -0.0570148527622    
0.00856175273657    0.032424531877      0.0570148527622     
0.00856175273657    0.046136662364      -0.046136662364     
0.00856175273657    0.046136662364      0.046136662364      
0.00856175273657    0.0570148527622     -0.032424531877     
0.00856175273657    0.0570148527622     0.032424531877      
0.00856175273657    0.0641837194562     -0.0167538467795    
0.00856175273657    0.0641837194562     0.0167538467795     
0.00856175273657    0.0667678713799     0.0                 
0.030600618571      -0.110610790551     -9.42152348407e-18  
0.030600618571      -0.106411486864     -0.0281638130546    
0.030600618571      -0.106411486864     0.0281638130546     
0.030600618571      -0.0947149917483    -0.054239012301     
0.030600618571      -0.0947149917483    0.054239012301      
0.030600618571      -0.0768734514713    -0.0768734514713    
0.030600618571      -0.0768734514713    0.0768734514713     
0.030600618571      -0.054239012301     -0.0947149917483    
0.030600618571      -0.054239012301     0.0947149917483     
0.030600618571      -0.0281638130546    -0.106411486864     
0.030600618571      -0.0281638130546    0.106411486864      
0.030600618571      -1.05992136094e-17  0.110610790551      
0.030600618571      -9.42152348407e-18  -0.110610790551     
0.030600618571      0.0281638130546     -0.106411486864     
0.030600618571      0.0281638130546     0.106411486864      
0.030600618571      0.054239012301      -0.0947149917483    
0.030600618571      0.054239012301      0.0947149917483     
0.030600618571      0.0768734514713     -0.0768734514713    
0.030600618571      0.0768734514713     0.0768734514713     
0.030600618571      0.0947149917483     -0.054239012301     
0.030600618571      0.0947149917483     0.054239012301      
0.030600618571      0.106411486864      -0.0281638130546    
0.030600618571      0.106411486864      0.0281638130546     
0.030600618571      0.110610790551      0.0                 
0.0606470070779     -0.137414768338     -7.47094722725e-18  
0.0606470070779     -0.132308110595     -0.035539906472     
0.0606470070779     -0.132308110595     0.035539906472      
0.0606470070779     -0.118019782007     -0.0680881738663    
0.0606470070779     -0.118019782007     0.0680881738663     
0.0606470070779     -0.0960973054171    -0.0960973054171    
0.0606470070779     -0.0960973054171    0.0960973054171     
0.0606470070779     -0.0680881738663    -0.118019782007     
0.0606470070779     -0.0680881738663    0.118019782007      
0.0606470070779     -0.035539906472     -0.132308110595     
0.0606470070779     -0.035539906472     0.132308110595      
0.0606470070779     -8.40481511367e-18  0.137414768338      
0.0606470070779     -7.47094722725e-18  -0.137414768338     
0.0606470070779     0.035539906472      -0.132308110595     
0.0606470070779     0.035539906472      0.132308110595      
0.0606470070779     0.0680881738663     -0.118019782007     
0.0606470070779     0.0680881738663     0.118019782007      
0.0606470070779     0.0960973054171     -0.0960973054171    
0.0606470070779     0.0960973054171     0.0960973054171     
0.0606470070779     0.118019782007      -0.0680881738663    
0.0606470070779     0.118019782007      0.0680881738663     
0.0606470070779     0.132308110595      -0.035539906472     
0.0606470070779     0.132308110595      0.035539906472      
0.0606470070779     0.137414768338      0.0                 
0.0932313278317     -0.15306584537      -3.68024690003e-18  
0.0932313278317     -0.14749841392      -0.0401921309531    
0.0932313278317     -0.14749841392      0.0401921309531     
0.0932313278317     -0.131848618388     -0.076616756618     
0.0932313278317     -0.131848618388     0.076616756618      
0.0932313278317     -0.107695154846     -0.107695154846     
0.0932313278317     -0.107695154846     0.107695154846      
0.0932313278317     -0.076616756618     -0.131848618388     
0.0932313278317     -0.076616756618     0.131848618388      
0.0932313278317     -0.0401921309531    -0.14749841392      
0.0932313278317     -0.0401921309531    0.14749841392       
0.0932313278317     -4.14027802102e-18  0.15306584537       
0.0932313278317     -3.68024690003e-18  -0.15306584537      
0.0932313278317     0.0401921309531     -0.14749841392      
0.0932313278317     0.0401921309531     0.14749841392       
0.0932313278317     0.076616756618      -0.131848618388     
0.0932313278317     0.076616756618      0.131848618388      
0.0932313278317     0.107695154846      -0.107695154846     
0.0932313278317     0.107695154846      0.107695154846      
0.0932313278317     0.131848618388      -0.076616756618     
0.0932313278317     0.131848618388      0.076616756618      
0.0932313278317     0.14749841392       -0.0401921309531    
0.0932313278317     0.14749841392       0.0401921309531     
0.0932313278317     0.15306584537       0.0                 
0.122883997858      -0.16345000267      0.0                 
0.122883997858      -0.157607212663     -0.0434304997325    
0.122883997858      -0.157607212663     0.0434304997325     
0.122883997858      -0.14112085104      -0.0824694857001    
0.122883997858      -0.14112085104      0.0824694857001     
0.122883997858      -0.115553937852     -0.115553937852     
0.122883997858      -0.115553937852     0.115553937852      
0.122883997858      -0.0824694857001    -0.14112085104      
0.122883997858      -0.0824694857001    0.14112085104       
0.122883997858      -0.0434304997325    -0.157607212663     
0.122883997858      -0.0434304997325    0.157607212663      
0.122883997858      -2.05432533524e-33  0.16345000267       
0.122883997858      0.0                 -0.16345000267      
0.122883997858      0.0434304997325     -0.157607212663     
0.122883997858      0.0434304997325     0.157607212663      
0.122883997858      0.0824694857001     -0.14112085104      
0.122883997858      0.0824694857001     0.14112085104       
0.122883997858      0.115553937852      -0.115553937852     
0.122883997858      0.115553937852      0.115553937852      
0.122883997858      0.14112085104       -0.0824694857001    
0.122883997858      0.14112085104       0.0824694857001     
0.122883997858      0.157607212663      -0.0434304997325    
0.122883997858      0.157607212663      0.0434304997325     
0.122883997858      0.16345000267       0.0                 
0.150729909539      -0.176334694028     2.27849257192e-18   
0.150729909539      -0.170090660453     -0.0471507757902    
0.150729909539      -0.170090660453     0.0471507757902     
0.150729909539      -0.152435213327     -0.0893502533436    
0.150729909539      -0.152435213327     0.0893502533436     
0.150729909539      -0.124983407557     -0.124983407557     
0.150729909539      -0.124983407557     0.124983407557      
0.150729909539      -0.0893502533436    -0.152435213327     
0.150729909539      -0.0893502533436    0.152435213327      
0.150729909539      -0.0471507757902    -0.170090660453     
0.150729909539      -0.0471507757902    0.170090660453      
0.150729909539      2.27849257192e-18   -0.176334694028     
0.150729909539      2.56330409172e-18   0.176334694028      
0.150729909539      0.0471507757902     -0.170090660453     
0.150729909539      0.0471507757902     0.170090660453      
0.150729909539      0.0893502533436     -0.152435213327     
0.150729909539      0.0893502533436     0.152435213327      
0.150729909539      0.124983407557      -0.124983407557     
0.150729909539      0.124983407557      0.124983407557      
0.150729909539      0.152435213327      -0.0893502533436    
0.150729909539      0.152435213327      0.0893502533436     
0.150729909539      0.170090660453      -0.0471507757902    
0.150729909539      0.170090660453      0.0471507757902     
0.150729909539      0.176334694028      0.0                 
0.174177765846      -0.191747456789     2.35744468665e-18   
0.174177765846      -0.18495452404      -0.051256403327     
0.174177765846      -0.18495452404      0.051256403327      
0.174177765846      -0.165748998523     -0.0971399992704    
0.174177765846      -0.165748998523     0.0971399992704     
0.174177765846      -0.135890841484     -0.135890841484     
0.174177765846      -0.135890841484     0.135890841484      
0.174177765846      -0.0971399992704    -0.165748998523     
0.174177765846      -0.0971399992704    0.165748998523      
0.174177765846      -0.051256403327     -0.18495452404      
0.174177765846      -0.051256403327     0.18495452404       
0.174177765846      2.35744468665e-18   -0.191747456789     
0.174177765846      2.65212529833e-18   0.191747456789      
0.174177765846      0.051256403327      -0.18495452404      
0.174177765846      0.051256403327      0.18495452404       
0.174177765846      0.0971399992704     -0.165748998523     
[...]
CELL_DATA 4080
SCALARS panel_area float 1
LOOKUP_TABLE default
0.000413126036197   
0.000572297857202   
0.00064931115077    
0.000637907065328   
0.000672125166581   
0.000665493017738   
0.000874091508793   
0.00135781717874    
0.00115286739897    
0.00143810991118    
0.0017097619263     
0.00195533158746    
0.00215980693062    
0.00230695549858    
0.00238067636745    
0.00330607199717    
0.00330929421617    
0.00335784408479    
0.00347393501428    
0.00367782777264    
0.00400369126349    
0.00452507716509    
0.00527466002535    
0.00627416013907    
0.00754088715122    
0.00901793102472    
0.010434077781      
0.0116949027816     
0.0127805048243     
0.0136804392226     
0.01179720958       
0.0143881215386     
0.0156250824208     
0.015508110604      
0.0140371509562     
0.0112122586094     
0.00703339680886    
0.00934703134851    
0.0113255365793     
0.0118170203606     
0.0108215194471     
0.0121650138127     
0.0102867202577     
0.00840840832544    
0.00840840832544    
0.0102867202577     
0.0121649954353     
0.01156435021       
0.00970305570144    
0.00966909436328    
0.00616229216047    
0.00617081924971    
0.00617567086944    
0.00617688377438    
0.00617449471921    
0.00771503100463    
0.00771503100463    
0.00771503100463    
0.00771503100463    
0.0103064942836     
0.0103235117074     
0.0103064942836     
0.00764221995387    
0.00764218319918    
0.0155757208655     
0.0308601607732     
0.000103574207515   
0.000694037822918   
0.00178714229386    
0.00328107530068    
0.00506432348975    
0.00701518796085    
0.00900318516475    
0.0108922919052     
0.0125460373429     
0.0138338822496     
0.014639285597      
0.0148684498208     
0.0144597889199     
0.0133950037056     
0.0117090137681     
0.00950100090433    
0.00694376744654    
0.00428975467477    
0.00186430792598    
0.000419077721242   
0.000576564995772   
0.000645890364502   
0.000625752442129   
0.000652048204895   
0.00064023035408    
0.000839487344645   
0.00130817921526    
0.00111439512195    
0.00139160007685    
0.001655213493      
0.00189307331319    
0.00209070474831    
0.00223253336747    
0.0023031686765     
0.0031975191295     
0.00319992397165    
0.00324664582387    
0.0033589857212     
0.00355640844656    
0.00387184271347    
0.00437624985315    
0.00510119439444    
0.00606770041888    
0.00729254140722    
0.00872074539236    
0.0100901155766     
0.0113093552684     
0.0123591923776     
0.0132295064166     
0.0114083697303     
0.0139138843913     
0.0151100746421     
0.0149969582543     
0.013574481913      
0.0108426989332     
0.00680157377141    
0.00903895016708    
0.0109522432245     
0.0114275275411     
0.0104648386602     
0.0117640510163     
0.00994766662542    
0.00813126446293    
0.00813126446293    
0.00994766662542    
0.0117640332447     
0.0111831854805     
0.00938323984199    
0.00935039788054    
0.00595918101444    
0.00596742704806    
0.00597211875684    
0.00597329168403    
0.00597098137289    
0.00746074108325    
0.00746074108325    
0.00746074108325    
0.00746074108325    
0.00996678889302    
0.00998324541699    
0.00996678889302    
0.00739032990832    
0.00739029436507    
0.0150623400596     
0.0298429998763     
0.000101352119625   
0.00067881420485    
0.00174722287241    
0.00320586762453    
0.0049443052542     
0.0068418623666     
0.00876926172349    
0.0105921624756     
0.0121766232939     
0.0133953695051     
0.0141361636075     
0.0143104376917     
0.0138627374755     
0.0127808938805     
0.0111062622168     
0.00894337166519    
0.00646901665507    
0.00393777151299    
0.00167412740977    
0.000424286647791   
0.000582094192724   
0.000647797708948   
0.000622622600019   
0.000644485867299   
0.000629662987585   
0.000824843613708   
0.00128778936367    
0.00109918931344    
0.00137348666202    
0.00163411065215    
0.00186901730507    
0.00206394375815    
0.00220360441223    
0.00227291432736    
0.00315499591967    
0.00315696826697    
0.00320294506374    
0.00331383554787    
0.00350876794157    
0.00382016421609    
0.00431796115121    
0.00503328680429    
0.00598689071551    
0.00719533515862    
0.00860441388614    
0.00995547158795    
0.0111584325192     
0.0121942828582     
0.0130530069613     
0.0112561802154     
0.0137282709018     
0.0149085037794     
0.0147968963826     
0.013393396108      
0.0106980555591     
0.0067108396668     
0.00891836909605    
0.0108061385117     
0.0112750824579     
0.0103252360039     
0.011607116655      
0.00981496312847    
0.0080227920674     
0.0080227920674     
0.00981496312847    
0.0116070991204     
0.0110339999603     
0.00925806589049    
0.00922566204616    
0.00587968456675    
0.00588782059693    
0.00589244971754    
0.0058936069977     
0.00589132750648    
0.00736121357908    
0.00736121357908    
0.00736121357908    
0.00736121357908    
0.00983383030189    
0.00985006729315    
0.00983383030189    
0.00729174170071    
0.00729170663162    
0.014861405984      
0.0294448893854     
0.00010099539811    
0.000676265579518   
0.00174028342586    
0.00319239889925    
0.0049226522603     
0.0068109979071     
0.00872901814051    
0.010543277787      
0.0121203987137     
0.0133336590831     
0.0140707923861     
0.0142426436857     
0.0137929039691     
0.012708136423      
0.0110286504838     
0.00885886913714    
0.00637791626411    
0.00384711035876    
0.00160590625374    
0.000423584830917   
0.000580918314464   
0.000646728993309   
0.000621837507118   
0.000643886033803   
0.000629706626708   
0.000825391798865   
0.00128836824694    
0.0010993723867     
0.00137356016024    
0.00163410190837    
0.00186895002552    
0.00206384424045    
0.00220349757153    
0.00227282577685    
0.0031549309632     
0.00315695573894    
0.00320296387903    
0.00331386814354    
0.00350880064655    
0.00382018305708    
0.00431796465168    
0.00503328177259    
0.00598688309606    
0.00719532954555    
0.00860441238639    
0.00995547152118    
0.0111584327498     
0.0121942830156     
0.013053006977      
0.0112561802154     
0.0137282709018     
0.0149085037794     
0.0147968963826     
0.013393396108      
0.0106980555591     
0.0067108396668     
0.00891836909605    
0.0108061385117     
0.0112750824579     
0.0103252360039     
0.011607116655      
0.00981496312847    
0.0080227920674     
0.0080227920674     
0.00981496312847    
0.0116070991204     
0.0110339999603     
0.00925806589049    
0.00922566204616    
0.00587968456675    
0.00588782059693    
0.00589244971754    
0.0058936069977     
0.00589132750648    
0.00736121357908    
0.00736121357908    
0.00736121357908    
0.00736121357908    
0.00983383030189    
0.00985006729315    
0.00983383030189    
0.00729174170071    
0.00729170663162    
0.014861405984      
0.0294448893854     
0.00010175977651    
0.000681339849086   
0.00175316257444    
0.00321599789652    
0.00495985100251    
0.00686482933174    
0.00880290459622    
0.0106406475744     
0.012244102405      
0.0134852141848     
0.014249206717      
0.014443462194      
0.0140073062183     
0.0129229135611     
0.0112264580966     
0.00902073120681    
0.00648695648144    
0.00389540309794    
0.00160578373314    
0.0004174571975     
0.000573859890844   
0.000643458045573   
0.000623980538285   
0.00065067871824    
0.00064033079956    
0.000840755800376   
0.00130951907969    
0.00111481798239    
0.00139177065283    
0.00165519228395    
0.0018929191078     
0.00209047479961    
0.00223228764729    
0.00230296363074    
0.00319736897592    
0.00319989571643    
0.00324668913934    
0.00335906127809    
0.00355648317983    
0.00387188548784    
0.00437625819111    
0.00510118217664    
0.006067683104      
0.00729253006389    
0.00872074131289    
0.0100901152936     
0.0113093557693     
0.0123591928054     
0.0132295064624     
0.0114083697303     
0.0139138843913     
0.0151100746421     
0.0149969582543     
0.013574481913      
0.0108426989332     
0.00680157377141    
0.00903895016708    
0.0109522432245     
0.0114275275411     
0.0104648386602     
0.0117640510163     
0.00994766662542    
0.00813126446293    
0.00813126446293    
0.00994766662542    
0.0117640332447     
0.0111831854805     
0.00938323984199    
0.00935039788054    
0.00595918101444    
0.00596742704806    
0.00597211875684    
0.00597329168403    
0.00597098137289    
0.00746074108325    
0.00746074108325    
0.00746074108325    
0.00746074108325    
0.00996678889302    
0.00998324541699    
0.00996678889302    
0.00739032990832    
0.00739029436507    
0.0150623400596     
0.0298429998763     
0.000103630539946   
0.000693878282146   
0.00178528894228    
0.0032750655165     
0.00505167256862    
0.00699416731434    
0.00897289914031    
0.0108528031305     
0.0124977945471     
0.0137768111143     
0.014571598024      
0.0147854578506     
0.0143538211943     
0.0132549867781     
0.0115232364127     
0.00926154522501    
0.00665547499191    
0.00398538088749    
0.00162936288606    
0.000412044894339   
0.000570501309274   
0.000647717858628   
0.000636757756104   
0.000671223895369   
0.000665559982928   
0.000874939830243   
0.00135871259572    
0.00115315028794    
0.00143822317322    
0.00170974808626    
0.00195522858938    
0.00215965428333    
0.0023067915295     
0.00238053974854    
0.00330597218575    
0.00330927556259    
0.00335787235972    
0.00347398573747    
0.00367787760306    
0.00400371987694    
0.0045250828637     
0.00527465236483    
0.00627414825896    
0.00754087863484    
0.00901792876948    
0.0104340775694     
0.0116949031883     
0.0127805050577     
0.013680439252      
0.01179720958       
0.0143881215386     
0.0156250824208     
0.015508110604      
0.0140371509562     
0.0112122586094     
0.00703339680886    
0.00934703134851    
0.0113255365793     
0.0118170203606     
0.0108215194471     
0.0121650138127     
0.0102867202577     
0.00840840832544    
0.00840840832544    
0.0102867202577     
0.0121649954353     
0.01156435021       
0.00970305570144    
0.00966909436328    
0.00616229216047    
0.00617081924971    
0.00617567086944    
0.00617688377438    
0.00617449471921    
0.00771503100463    
0.00771503100463    
0.00771503100463    
0.00771503100463    
0.0103064942836     
0.0103235117074     
0.0103064942836     
0.00764221995387    
0.00764218319918    
0.0155757208655     
0.0308601607732     
0.000107342309867   
0.00071874419265    
0.00184901378791    
0.00339166350119    
0.00523070346641    
0.00724035026044    
0.00928607644532    
0.0112273258586     
0.0129229102468     
0.0142370908804     
0.0150476529554     
0.0152554009297     
0.0147945253037     
0.0136449012818     
0.0118440472013     
0.00950123739015    
0.00681069321511    
0.00406357664712    
0.00165088176884    
0.000413126036197   
0.000572297857202   
0.00064931115077    
0.000637907065328   
0.000672125166581   
0.000665493017738   
0.000874091508793   
0.00135781717874    
0.00115286739897    
0.00143810991118    
0.0017097619263     
0.00195533158746    
0.00215980693062    
0.00230695549858    
0.00238067636745    
0.00330607199717    
0.00330929421617    
0.00335784408479    
0.00347393501428    
0.00367782777264    
0.00400369126349    
0.00452507716509    
0.00527466002535    
0.00627416013907    
0.00754088715122    
0.00901793102472    
0.010434077781      
0.0116949027816     
0.0127805048243     
0.0136804392226     
0.01179720958       
0.0143881215386     
0.0156250824208     
0.015508110604      
0.0140371509562     
0.0112122586094     
0.00703339680886    
0.00934703134851    
0.0113255365793     
0.0118170203606     
0.0108215194471     
0.0121650138127     
0.0102867202577     
0.00840840832544    
0.00840840832544    
0.0102867202577     
0.0121649954353     
0.01156435021       
0.00970305570144    
0.00966909436328    
0.00616229216047    
0.00617081924971    
0.00617567086944    
0.00617688377438    
0.00617449471921    
0.00771503100463    
0.00771503100463    
0.00771503100463    
0.00771503100463    
0.0103064942836     
0.0103235117074     
0.0103064942836     
0.00764221995387    
0.00764218319918    
0.0155757208655     
0.0308601607732     
0.000107153032523   
0.000717456344516   
0.00184589538626    
0.00338601952423    
0.00522220332025    
0.00722898322951    
0.00927182063373    
0.0112105960964     
0.012904254185      
0.014217163208      
0.015027311419      
0.0152354456024     
0.0147760963912     
0.0136286799203     
0.0118309120889     
0.00949168821032    
0.00680488054655    
0.00406122982917    
0.00165088176884    
0.000419077721242   
0.000576564995772   
0.000645890364502   
0.000625752442129   
0.000652048204895   
0.00064023035408    
0.000839487344645   
0.00130817921526    
0.00111439512195    
0.00139160007685    
0.001655213493      
0.00189307331319    
0.00209070474831    
0.00223253336747    
0.0023031686765     
0.0031975191295     
0.00319992397165    
0.00324664582387    
0.0033589857212     
0.00355640844656    
0.00387184271347    
0.00437624985315    
0.00510119439444    
0.00606770041888    
0.00729254140722    
0.00872074539236    
0.0100901155766     
0.0113093552684     
0.0123591923776     
0.0132295064166     
0.0114083697303     
0.0139138843913     
0.0151100746421     
0.0149969582543     
0.013574481913      
0.0108426989332     
0.00680157377141    
0.00903895016708    
0.0109522432245     
0.0114275275411     
0.0104648386602     
0.0117640510163     
0.00994766662542    
0.00813126446293    
0.00813126446293    
0.00994766662542    
0.0117640332447     
0.0111831854805     
0.00938323984199    
0.00935039788054    
0.00595918101444    
0.00596742704806    
0.00597211875684    
0.00597329168403    
0.00597098137289    
0.00746074108325    
0.00746074108325    
0.00746074108325    
0.00746074108325    
0.00996678889302    
0.00998324541699    
0.00996678889302    
0.00739032990832    
0.00739029436507    
0.0150623400596     
0.0298429998763     
0.000103118394819   
0.000690434440213   
0.00177665589602    
0.00325958732606    
0.00502850044684    
0.0069628593975     
0.00893388344756    
0.0108070232687     
0.0124466239792     
0.0137222066641     
0.0145158022944     
0.0147310240709     
0.0143031528266     
0.0132106700199     
0.0114872461188     
0.0092353796835     
0.00663964396612    
0.00397895925702    
0.00162936288606    
0.000424286647791   
0.000582094192724   
0.000647797708948   
0.000622622600019   
0.000644485867299   
0.000629662987585   
0.000824843613708   
0.00128778936367    
0.00109918931344    
0.00137348666202    
0.00163411065215    
0.00186901730507    
0.00206394375815    
0.00220360441223    
0.00227291432736    
0.00315499591967    
0.00315696826697    
0.00320294506374    
0.00331383554787    
0.00350876794157    
0.00382016421609    
0.00431796115121    
0.00503328680429    
0.00598689071551    
0.00719533515862    
0.00860441388614    
0.00995547158795    
0.0111584325192     
0.0121942828582     
0.0130530069613     
0.0112561802154     
0.0137282709018     
0.0149085037794     
0.0147968963826     
0.013393396108      
0.0106980555591     
0.0067108396668     
0.00891836909605    
0.0108061385117     
0.0112750824579     
0.0103252360039     
0.011607116655      
0.00981496312847    
0.0080227920674     
0.0080227920674     
0.00981496312847    
0.0116070991204     
0.0110339999603     
0.00925806589049    
0.00922566204616    
0.00587968456675    
0.00588782059693    
0.00589244971754    
0.0058936069977     
0.00589132750648    
0.00736121357908    
0.00736121357908    
0.00736121357908    
0.00736121357908    
0.00983383030189    
0.00985006729315    
0.00983383030189    
0.00729174170071    
0.00729170663162    
0.014861405984      
0.0294448893854     
0.000100969071398   
0.00067608385115    
0.00173991964513    
0.00319232772582    
0.00492428040372    
0.00681696756787    
0.00874323189182    
0.0105705900769     
0.0121659406798     
0.0134018349982     
0.0141641044245     
0.0143604202276     
0.0139302891888     
0.0128555212509     
0.0111719651057     
0.00898123690684    
0.00646312763152    
0.00388580557404    
0.00160578373314    
0.000423584830917   
0.000580918314464   
0.000646728993309   
0.000621837507118   
0.000643886033803   
0.000629706626708   
0.000825391798865   
0.00128836824694    
0.0010993723867     
0.00137356016024    
0.00163410190837    
0.00186895002552    
0.00206384424045    
0.00220349757153    
0.00227282577685    
0.0031549309632     
0.00315695573894    
0.00320296387903    
0.00331386814354    
0.00350880064655    
0.00382018305708    
0.00431796465168    
0.00503328177259    
0.00598688309606    
0.00719532954555    
0.00860441238639    
0.00995547152118    
0.0111584327498     
0.0121942830156     
0.013053006977      
0.0112561802154     
0.0137282709018     
0.0149085037794     
0.0147968963826     
0.013393396108      
0.0106980555591     
0.0067108396668     
0.00891836909605    
0.0108061385117     
0.0112750824579     
0.0103252360039     
0.011607116655      
0.00981496312847    
0.0080227920674     
0.0080227920674     
0.00981496312847    
0.0116070991204     
0.0110339999603     
0.00925806589049    
0.00922566204616    
0.00587968456675    
0.00588782059693    
0.00589244971754    
0.0058936069977     
0.00589132750648    
0.00736121357908    
0.00736121357908    
0.00736121357908    
0.00736121357908    
0.00983383030189    
0.00985006729315    
0.00983383030189    
0.00729174170071    
0.00729170663162    
0.014861405984      
0.0294448893854     
9.99587365576e-05   
0.000669464211497   
0.00172314156293    
0.003161771745      
0.00487667152865    
0.00674914526156    
0.00865200185572    
0.0104529179324     
0.0120197055331     
0.0132264138417     
0.0139614724118     
0.0141362416505     
0.0136944116713     
0.0126222952713     
0.0109594383095     
0.00880901865437    
0.00634811524778    
0.00383529074222    
0.00160590625374    
0.0004174571975     
0.000573859890844   
0.000643458045573   
0.000623980538285   
0.00065067871824    
0.00064033079956    
0.000840755800376   
0.00130951907969    
0.00111481798239    
0.00139177065283    
0.00165519228395    
0.0018929191078     
0.00209047479961    
0.00223228764729    
0.00230296363074    
0.00319736897592    
0.00319989571643    
0.00324668913934    
0.00335906127809    
0.00355648317983    
0.00387188548784    
0.00437625819111    
0.00510118217664    
0.006067683104      
0.00729253006389    
0.00872074131289    
0.0100901152936     
0.0113093557693     
0.0123591928054     
0.0132295064624     
0.0114083697303     
0.0139138843913     
0.0151100746421     
0.0149969582543     
0.013574481913      
0.0108426989332     
0.00680157377141    
0.00903895016708    
0.0109522432245     
0.0114275275411     
0.0104648386602     
0.0117640510163     
0.00994766662542    
0.00813126446293    
0.00813126446293    
0.00994766662542    
0.0117640332447     
0.0111831854805     
0.00938323984199    
0.00935039788054    
0.00595918101444    
0.00596742704806    
0.00597211875684    
0.00597329168403    
0.00597098137289    
0.00746074108325    
0.00746074108325    
0.00746074108325    
0.00746074108325    
0.00996678889302    
0.00998324541699    
0.00996678889302    
0.00739032990832    
0.00739029436507    
0.0150623400596     
0.0298429998763     
0.000100092450963   
0.000670671616107   
0.00172673637581    
0.00316927668739    
0.00488942312964    
0.00676807189334    
0.00867747943049    
0.0104847345971     
0.0120570446989     
0.0132682544308     
0.014006922278      
0.0141849864655     
0.0137469494004     
0.0126804766097     
0.0110257875662     
0.00888587322919    
0.00643511887916    
0.00392455197317    
0.00167412740977    
0.000412044894339   
0.000570501309274   
0.000647717858628   
0.000636757756104   
0.000671223895369   
0.000665559982928   
0.000874939830243   
0.00135871259572    
0.00115315028794    
0.00143822317322    
0.00170974808626    
0.00195522858938    
0.00215965428333    
0.0023067915295     