# vtk DataFile Version 3.0
PyPan mesh file. Generated by PyPan, USU AeroLab (c) 2020.
ASCII
DATASET POLYDATA
POINTS 4106 float
8.6676382125e-06    0.0                 -0.00815892685205   
0.000321695086313   0.00276231742464    -0.00774389132857   
0.00358379841782    0.00711411098018    -0.0119386343285    
0.00358380656689    0.00582989770919    -0.013647002168     
0.00358381052501    0.0                 -0.0160396173596    
0.00358381075785    0.00414397567511    -0.0149483121932    
0.00375242205337    0.00679411087185    -0.00269859074615   
0.00375242438167    7.03531404657e-17   0.000746517500374   
0.00375242484733    0.00496555538848    -0.000842298206408  
0.00538134202361    0.00992879457772    -0.00773776695132   
0.00881759356707    0.0105607192963     8.30535136629e-05   
0.00881759542972    0.00775392120704    0.00291108293459    
0.00881759636104    -3.51765715564e-16  0.00531523535028    
0.00881759636104    0.00413883477449    0.00470214663073    
0.0101678688079     0.0121630439535     -0.0147864017636    
0.0101678697392     0.0                 -0.0218113474548    
0.0101678697392     0.00703603541479    -0.0199318435043    
0.0101678697392     0.0099390335381     -0.017699835822     
0.0124903256074     0.0157966129482     -0.00771649181843   
0.0143350120634     -3.51765715564e-16  0.00921460427344    
0.014335013926      0.0163191910833     -0.00219719717279   
0.0143350185826     0.00557100679725    0.00843748450279    
0.014335019514      0.0140159819275     0.00253200763837    
0.0143350232393     0.010350683704      0.00615860009566    
0.0173818618059     0.0                 -0.0267841480672    
0.0173818618059     0.00492575485259    -0.0261308532208    
0.0173818655312     0.00953102111816    -0.0242162998766    
0.0173818748444     0.0134950503707     -0.0211739074439    
0.0173818860203     0.016541801393      -0.0172155499458    
0.0173818953335     0.0184590965509     -0.0126168690622    
0.0201194733381     0.0085966726765     0.0115127526224     
0.020119484514      0.0198403373361     -0.000354916614015  
0.0201194919646     0.0                 0.0127929784358     
0.0201194919646     0.0139947002754     0.00865311361849    
0.0201194919646     0.0175056550652     0.00483691180125    
0.0201194975525     0.0207817144692     -0.00768976286054   
0.0249751731753     0.0                 -0.031267568469     
0.0249751731753     0.00610461737961    -0.0304674748331    
0.024975175038      0.0117755280808     -0.0281203892082    
0.0249751769006     0.0166342910379     -0.0243830177933    
0.0249751824886     0.0203567184508     -0.0195047538728    
0.0249751862139     0.0226944237947     -0.0138110956177    
0.0273139178753     0.0102810664102     0.0147533258423     
0.027319682762      0.0210025515407     0.00736284861341    
0.0273198653013     0.0235562454909     0.00107513298281    
0.0273248944432     0.0169672630727     0.0120114050806     
0.0273283943534     0.024714929983      -0.0076822610572    
0.0273301750422     -6.90174029039e-10  0.016375977546      
0.0328476987779     0.0                 -0.0351755432785    
0.0328476987779     0.00710711581632    -0.0342404358089    
0.0328476987779     0.013723095879      -0.0314981862903    
0.0328476987779     0.0194001309574     -0.027134520933     
0.0328476987779     0.0237540341914     -0.0214447733015    
0.0328476987779     0.026490136981      -0.0148139828816    
0.0347322709858     0.0283089410514     -0.00769455963746   
0.0347322784364     0.0                 0.0193257778883     
0.0347322784364     0.0105414018035     0.0177174843848     
0.0347322784364     0.018803069368      0.0156802181154     
0.0347322784364     0.022380342707      0.0126308863983     
0.0347322784364     0.0262510068715     0.00477394275367    
0.0402389839292     0.00977505464107    0.0198398306966     
0.0402390621603     0.0196405630559     0.0182514116168     
0.0408489964902     0.0                 -0.0388133898377    
0.0408489964902     0.00804774276912    -0.0377532355487    
0.0408489964902     0.0155461439863     -0.0346446931362    
0.0408489964902     0.0219845864922     -0.0296995677054    
0.0408489964902     0.0269246958196     -0.0232545807958    
0.0408489964902     0.0300300884992     -0.015748552978     
0.0411745794117     0.0293335914612     0.00462206732482    
0.041834961623      0.0                 0.0263510011137     
0.0450287796557     0.00582051835954    0.0265596397221     
0.0477827861905     0.0211345199496     0.0211475975811     
0.0477827861905     0.024212801829      0.0193891543895     
0.0477827861905     0.0272332318127     0.0141415083781     
0.0477827861905     0.0321783795953     0.00414704857394    
0.0477827899158     0.0340991057456     -0.0076361191459    
0.0489376448095     0.0                 -0.0422242730856    
0.0489376448095     0.0                 0.033376224339      
0.0489376448095     0.00895034987479    -0.0410449616611    
0.0489376448095     0.0172917209566     -0.0375873930752    
0.0489376448095     0.0244552046061     -0.0320874191821    
0.0489376448095     0.0299522634596     -0.0249201469123    
0.0489376448095     0.0334080085158     -0.0165743790567    
0.0538155995309     0.0302436836064     0.0133446175605     
0.0538155995309     0.0336854271591     0.00682762358338    
0.054043546319      0.0108147766441     0.0328155420721     
0.0569678470492     0.026978848502      0.0212855748832     
0.0589048415422     0.0                 0.0411965698004     
0.0589048415422     0.00821549538523    0.0387312360108     
0.0589048415422     0.0211113821715     0.0322817228734     
0.0589048452675     0.0243148896843     0.027313016355      
0.0598614737391     0.0322336181998     0.0142980609089     
0.0598614737391     0.0358764231205     0.00755071174353    
0.0638007894158     0.0                 -0.047703627497     
0.0638007894158     0.0090094069019     -0.0466879755259    
0.0638007894158     0.0175700671971     -0.0436921045184    
0.0638007894158     0.0252515841275     -0.0388666205108    
0.0638007894158     0.0316677689552     -0.0324541330338    
0.0638007894158     0.03649603948       -0.0247770305723    
0.0638007894158     0.0394936390221     -0.0162212960422    
0.0648939013481     0.0409201569855     -0.00717568397522   
0.0659197419882     0.0342156328261     0.0152738336474     
0.0659197419882     0.0380182974041     0.00829711556435    
0.0661949217319     0.0297594517469     0.0231920201331     
0.066897213459      0.0106561807916     0.0429699271917     
0.066897533834      6.72083591037e-13   0.045496493578      
0.066897533834      0.0205339454114     0.0382309257984     
0.0671704038978     0.0259635653347     0.0305091682822     
0.0719891786575     0.0361911021173     0.0162694808096     
0.0719891786575     0.0401169322431     0.00906379427761    
0.0754480883479     0.0195032283664     0.0430844761431     
0.0754480957985     0.0                 0.0489389523864     
0.0754480957985     0.0101795494556     0.047427393496      
0.0754480957985     0.0276033524424     0.0336880832911     
0.0754481032491     0.0325509645045     0.0251059439033     
0.0780682042241     0.0354693941772     0.0219471864402     
0.0780682042241     0.0381661839783     0.0172855407        
0.0780682042241     0.0421760641038     0.00984745193273    
0.0788954719901     0.0                 -0.0523995831609    
0.0788954719901     0.0102086681873     -0.0512494817376    
0.0788954719901     0.0199069827795     -0.0478569194674    
0.0788954719901     0.0286080483347     -0.0423921942711    
0.0788954719901     0.0358750373125     -0.0351296588778    
0.0788954719901     0.0413431189954     -0.0264339335263    
0.0788954719901     0.0447377711535     -0.0167415738106    
0.0810369700193     0.0342375449836     0.0262622460723     
0.0811118930578     0.0466287173331     -0.00642379699275   
0.0811252817512     0.0                 0.0508887805045     
0.0811252817512     0.0102308504283     0.0494299121201     
0.0811252817512     0.0196702647954     0.0452172271907     
0.0811252817512     0.0251830630004     0.040661867708      
0.0811252817512     0.0319363251328     0.0302937719971     
0.0841558203101     0.0373605750501     0.0231028348207     
0.0841558203101     0.0401454418898     0.0183219853789     
0.0841558203101     0.0441932156682     0.0106427110732     
0.0841558203101     0.0467671044171     0.00236595096067    
0.0866336897016     0.0359221100807     0.0274171959609     
0.0868309438229     0.0                 0.0527068935335     
0.0868309438229     0.0106255607679     0.0511929281056     
0.0868309438229     0.0204236488789     0.0468054488301     
0.0868309438229     0.0262245871127     0.0421585552394     
0.0868309438229     0.0302597563714     0.0371518358588     
0.0868309438229     0.0335852950811     0.0316380001605     
0.0902547985315     0.0392456278205     0.0242611896247     
0.0902547985315     0.0421139150858     0.0193672627211     
0.0902547985315     0.0461606197059     0.0114413043484     
0.0902547985315     0.0487133450806     0.00292812567204    
0.0923215597868     0.0376193709671     0.0285809002817     
0.0928110033274     0.0                 0.0544943511486     
0.0928110033274     0.0110135013238     0.052918754518      
0.0928110033274     0.0211641360074     0.0483519844711     
0.0928110033274     0.0272520389408     0.0436230935156     
0.0928110033274     0.0316638275981     0.0386213995516     
0.0928110033274     0.0352898016572     0.0330194532871     
0.0941684320569     0.0                 -0.0564366355538    
0.0941684320569     0.0112910121679     -0.055164206773     
0.0941684320569     0.0220172759145     -0.0514107942581    
0.0941684320569     0.031640380621      -0.0453647747636    
0.0941684320569     0.0396773144603     -0.037329621613     
0.0941684320569     0.0457246787846     -0.0277086533606    
0.0941684320569     0.0494789332151     -0.0169847775251    
[...]
CELL_DATA 8000
SCALARS panel_area float 1
LOOKUP_TABLE default
7.95523065182e-05   
7.95523584837e-05   
7.95522566954e-05   
7.95520862644e-05   
7.95513598054e-05   
7.95513974722e-05   
7.95514291012e-05   
7.95520921851e-05   
7.95521425382e-05   
7.95520329401e-05   
7.95518601441e-05   
7.95511267066e-05   
7.9551173992e-05    
7.95512076932e-05   
7.95520709769e-05   
7.95520895469e-05   
7.95520217535e-05   
7.955184404e-05     
7.95510949896e-05   
7.95511148547e-05   
7.95512029838e-05   
7.95520442692e-05   
7.95520867632e-05   
7.95519919119e-05   
7.9551811833e-05    
7.95510558021e-05   
7.9551104535e-05    
7.95511691982e-05   
7.95520230611e-05   
7.95520544118e-05   
7.95519434155e-05   
7.95517796261e-05   
7.95510296771e-05   
7.95510749664e-05   
7.95511417017e-05   
7.95519908541e-05   
7.95520516283e-05   
7.95519135741e-05   
7.95517474192e-05   
7.95509904897e-05   
7.95510646467e-05   
7.95511024168e-05   
7.95519704351e-05   
7.95520089572e-05   
7.95519023877e-05   
7.95517152124e-05   
7.95509513023e-05   
7.9551035078e-05    
7.95510749203e-05   
7.95521431404e-05   
7.95521705194e-05   
7.95520664595e-05   
7.95518769183e-05   
7.95511321507e-05   
7.95511698518e-05   
7.95512578328e-05   
7.95519170204e-05   
7.95519738229e-05   
7.95518427052e-05   
7.9551650799e-05    
7.95508990525e-05   
7.95509656211e-05   
7.95510246368e-05   
7.95519325435e-05   
7.95518389878e-05   
7.95516185923e-05   
7.95508598652e-05   
7.95509360526e-05   
7.95509971403e-05   
7.95518091467e-05   
7.95515863857e-05   
7.9550820678e-05    
7.95509257328e-05   
7.95509578554e-05   
7.9551538076e-05    
7.95507758986e-05   
7.95508858445e-05   
7.95509413575e-05   
7.95515219727e-05   
7.95507628362e-05   
7.9550856276e-05    
7.95509075719e-05   
7.95514897662e-05   
7.9550723649e-05    
7.95508267075e-05   
7.95508800754e-05   
7.95508783721e-05   
7.95509910494e-05   
7.95510464896e-05   
7.95506452748e-05   
7.95507868192e-05   
7.95508132941e-05   
7.95506060877e-05   
7.9550746931e-05    
7.95508022955e-05   
7.95506060877e-05   
7.95507173625e-05   
7.95507630106e-05   
7.95505855553e-05   
7.95506671546e-05   
7.95507355142e-05   
7.95505463683e-05   
7.95506375861e-05   
7.95507198061e-05   
5.83353569253e-05   
7.95506824365e-05   
7.95508211764e-05   
7.95508744314e-05   
7.95510382051e-05   
7.95502554302e-05   
7.95503934682e-05   
7.95504756125e-05   
7.9551393822e-05    
7.95506040625e-05   
7.95507709683e-05   
7.95508241478e-05   
7.95509737933e-05   
7.95502031812e-05   
7.95503343315e-05   
7.95504088313e-05   
7.95513133071e-05   
7.95505648756e-05   
7.95506925827e-05   
7.95507691547e-05   
7.95516812796e-05   
7.95512811012e-05   
7.95505256887e-05   
7.95506822629e-05   
7.95507298698e-05   
7.95512612494e-05   
7.95508610732e-05   
7.95500986834e-05   
7.95502545555e-05   
7.95503310515e-05   
7.95516168676e-05   
7.95517201658e-05   
7.95515592063e-05   
7.95512166896e-05   
7.9550447315e-05    
7.95506320549e-05   
7.95506795862e-05   
7.95512078364e-05   
7.95513192404e-05   
7.95511228884e-05   
7.95508127649e-05   
7.95500464345e-05   
7.95501954189e-05   
7.95502642704e-05   
7.9552286099e-05    
7.9552336452e-05    
7.95522268537e-05   
7.95520540573e-05   
7.95513206178e-05   
7.95513679034e-05   
7.95514016047e-05   
7.95520709769e-05   
7.95520895471e-05   
7.95520217536e-05   
7.955184404e-05     
7.95510949896e-05   
7.95511148548e-05   
7.95512029838e-05   
7.95520442694e-05   
7.95520867634e-05   
7.9551991912e-05    
7.95518118331e-05   
7.95510558021e-05   
7.9551104535e-05    
7.95511691982e-05   
7.95520230611e-05   
7.95520544119e-05   
7.95519434156e-05   
7.95517796261e-05   
7.95510296771e-05   
7.95510749664e-05   
7.95511417017e-05   
7.95519908544e-05   
7.95520516285e-05   
7.95519135742e-05   
7.95517474193e-05   
7.95509904897e-05   
7.95510646467e-05   
7.95511024168e-05   
7.95519704354e-05   
7.95520089573e-05   
7.95519023878e-05   
7.95517152125e-05   
7.95509513023e-05   
7.9551035078e-05    
7.95510749203e-05   
7.95519492272e-05   
7.95519766062e-05   
7.95518725465e-05   
7.95516830057e-05   
7.95509382399e-05   
7.95509759409e-05   
7.95510639217e-05   
7.95521109338e-05   
7.95521677363e-05   
7.95520366183e-05   
7.95518447116e-05   
7.95510929633e-05   
7.9551159532e-05    
7.95512185478e-05   
7.95518848138e-05   
7.95519325436e-05   
7.9551838988e-05    
7.95516185924e-05   
7.95508598652e-05   
7.95509360526e-05   
7.95509971403e-05   
7.95519001926e-05   
7.95518091469e-05   
7.95515863858e-05   
7.9550820678e-05    
7.95509257328e-05   
7.95509578554e-05   
9.79119298726e-05   
7.95515380761e-05   
7.95507758986e-05   
7.95508858445e-05   
7.95509413575e-05   
7.95515219727e-05   
7.95507628363e-05   
7.9550856276e-05    
7.95509075719e-05   
7.95514897663e-05   
7.95507236491e-05   
7.95508267075e-05   
7.95508800754e-05   
7.95514575599e-05   
7.95506844619e-05   
7.9550797139e-05    
7.9550852579e-05    
7.95508391849e-05   
7.95509807297e-05   
7.95510072046e-05   
7.95506060877e-05   
7.9550746931e-05    
7.95508022955e-05   
7.95506060877e-05   
7.95507173625e-05   
7.95507630106e-05   
7.95505855553e-05   
7.95506671545e-05   
7.95507355141e-05   
7.95505463683e-05   
7.95506375861e-05   
7.95507198061e-05   
7.95504885268e-05   
7.95506272663e-05   
7.95506805212e-05   
7.01500389092e-05   
7.95506432495e-05   
7.95507812881e-05   
7.95508634328e-05   
7.95510059992e-05   
7.95502162435e-05   
7.95503831485e-05   
7.95504363277e-05   
7.95513616161e-05   
7.95505910002e-05   
7.95507221512e-05   
7.95507966513e-05   
7.95509254846e-05   
7.95501770567e-05   
7.95503047632e-05   
7.95503813349e-05   
7.95512811013e-05   
7.95505256887e-05   
7.95506822629e-05   
7.95507298698e-05   
7.95516490737e-05   
7.95512488954e-05   
7.95504865018e-05   
7.95506423747e-05   
7.95507188711e-05   
7.95512290437e-05   
7.95508288676e-05   
7.95500594968e-05   
7.95502442357e-05   
7.95502917668e-05   
7.95515956605e-05   
7.95517070651e-05   
7.9551510712e-05    
7.95512005869e-05   
7.95504342528e-05   
7.95505832379e-05   
7.95506520897e-05   
7.95511874194e-05   
7.95512972106e-05   
7.9551093049e-05    
7.95507966626e-05   
7.95499885934e-05   
7.95501658507e-05   
7.9550236774e-05    
7.95513127052e-05   
7.95511690541e-05   
7.95513500451e-05   
7.95513222877e-05   
7.95512005854e-05   
7.95507532604e-05   
7.95508108566e-05   
7.95506960842e-05   
7.95504742407e-05   
7.95500841579e-05   
7.95505003376e-05   
7.95501408802e-05   
7.95505570602e-05   
7.95505910932e-05   
7.95502316354e-05   
7.95506478158e-05   
7.95502883577e-05   
7.95507045384e-05   
7.95505446615e-05   
7.95505730228e-05   
7.95506053536e-05   
7.95506337149e-05   
7.95506620761e-05   
7.95508900192e-05   
7.95507244703e-05   
7.95507528315e-05   
7.95507811928e-05   
7.95508152256e-05   
7.95508435869e-05   
7.95508719481e-05   
7.95510942201e-05   
7.95509286706e-05   
7.95509627035e-05   
7.95509910648e-05   
7.9551019426e-05    
7.95510477873e-05   
7.95510818202e-05   
7.95513080622e-05   
7.95511425122e-05   
7.95510653802e-05   
7.95509743533e-05   
7.95508953598e-05   
7.95509587728e-05   
7.95514736737e-05   
7.9551872514e-05    
7.9552222314e-05    
7.95526271989e-05   
7.95530018275e-05   
7.95523759867e-05   
7.95521452854e-05   
7.95521124664e-05   
7.95520700066e-05   
7.95520332186e-05   
7.95519964305e-05   
7.95519596432e-05   
7.95521207374e-05   
7.95518900361e-05   
7.95518572171e-05   
5.5863860995e-05    
5.08726124974e-05   
5.07495719566e-05   
5.25220138236e-05   
5.57951257574e-05   
6.10854924596e-05   
6.93677906078e-05   
6.93677906078e-05   
8.2221069375e-05    
8.22210693753e-05   
9.84300719944e-05   
7.95511816574e-05   
7.95515694812e-05   
7.95511488389e-05   
7.95514998743e-05   
7.9551461384e-05    
7.9551036773e-05    
7.95513917772e-05   
7.95509602307e-05   
4.08800375394e-06   
4.37357646627e-06   
5.24837845587e-06   
6.29728931279e-06   
7.55419257563e-06   
9.05734883587e-06   
1.08524708627e-05   
8.71517514012e-06   
1.04862874167e-05   
1.25957365381e-05   
1.50851399214e-05   
1.7980417956e-05    
1.20033073372e-05   
1.42627173297e-05   
1.65426713772e-05   
6.01481051318e-05   
5.64193230412e-05   
5.06215720257e-05   
0.000139395560402   
0.000148012646027   
0.000117172413497   
7.83878090798e-05   
5.93628773033e-05   
4.57863255046e-05   
3.64582630442e-05   
3.05637463466e-05   
2.79433761176e-05   
2.45857095331e-05   
2.49262840641e-05   
6.74957722759e-06   
6.28149254945e-06   
6.10647763907e-06   
5.59813159138e-06   
4.6853441821e-06    
3.55544309375e-06   
7.85739218075e-06   
6.67593086541e-06   
5.6667085118e-06    
4.72224057573e-06   
3.93493640672e-06   
3.7218418922e-06    
4.37040446384e-06   
5.33472975211e-06   
6.53142515963e-06   
7.89937472202e-06   
9.00139561735e-06   
1.86908685755e-06   
2.08513780323e-06   
1.39361543175e-05   
2.00930929859e-05   
1.6996210909e-05    
2.58932111669e-05   
1.98151651089e-05   
2.41321789003e-05   
2.82582590106e-05   
3.21552874124e-05   
7.03196590179e-05   
6.60400051902e-05   
0.000152047644394   
0.000168777275013   
0.000166492030086   
8.29708356797e-05   
5.57961706112e-05   
5.48174979488e-05   
4.62978927433e-05   
4.36997772953e-05   
3.95078555209e-05   
3.32774672109e-05   
2.8581477438e-05    
2.39241358075e-05   
1.9634643772e-05    
1.63057109772e-05   
1.35822016675e-05   
1.1336258041e-05    
9.47406207071e-06   
7.96843917269e-06   
5.9781280039e-06    
4.96754197452e-06   
7.95521126066e-05   
7.95523391992e-05   
7.95521645714e-05   
7.95520627836e-05   
7.95518923515e-05   
7.95511658947e-05   
7.95512035608e-05   
7.95512351897e-05   
7.95513364235e-05   
7.95521124663e-05   
7.9551114151e-05    
7.95520700067e-05   
7.95510818202e-05   
7.95520332185e-05   
7.95510477873e-05   
7.95519964305e-05   
7.9551019426e-05    
7.95519596431e-05   
7.95509910648e-05   
7.95519268241e-05   
7.95509627035e-05   
7.95520839492e-05   
7.95511225814e-05   
8.29577507408e-05   
7.95518572171e-05   
7.95509003094e-05   
2.31136354761e-05   
9.06411031168e-06   
7.95508719481e-05   
4.75300197994e-05   
8.84054834278e-05   
7.95508435869e-05   
7.95508152256e-05   
5.12534325723e-05   
7.95507811928e-05   
7.95516514719e-05   
4.08334846175e-05   
7.95507528315e-05   
7.95509183805e-05   
0.000113004646885   
7.9550696109e-05    
0.000113004637989   
7.95506620761e-05   
0.000111823310537   
7.95506337149e-05   
0.000119826431295   
7.95506053537e-05   
5.83352165942e-05   
7.95505730228e-05   
5.05073881535e-05   
7.95507385714e-05   
6.17489282268e-05   
7.95503167189e-05   
7.53903240783e-05   
7.95506761771e-05   
7.91256053586e-05   
7.95502599965e-05   
8.24329600232e-05   
7.95506194545e-05   
0.000112568309649   
3.08615749281e-05   
7.9551424596e-05    
8.2587427256e-05    
7.95505910932e-05   
6.10101793764e-05   
7.95510039544e-05   
7.85657151965e-05   
7.95501692414e-05   
7.95513480534e-05   
2.08667229963e-05   
7.95505286989e-05   
7.95515752433e-05   
7.95509248827e-05   
7.95516850348e-05   
7.95514808725e-05   
7.95511844852e-05   
7.95503764115e-05   
7.95505536703e-05   
7.9550112519e-05    
7.95506245931e-05   
7.95508950824e-05   
7.95504719764e-05   
7.95521820752e-05   
0.000111798637653   
8.96339584612e-05   
0.000143052537147   
0.000103476858612   
5.6913155506e-05    
7.95515366624e-05   
7.95511120509e-05   
5.08231375513e-05   
7.95514613839e-05   
7.95516812796e-05   
6.54169083956e-05   
6.01392264435e-05   
4.5118387708e-05    
6.01820155327e-06   
7.52188762259e-06   
8.25241851048e-06   
4.21620610418e-06   
6.0342683032e-06    
7.59026400335e-06   
8.36388147218e-06   
6.15690258571e-06   
7.71117501398e-06   
8.48076890333e-06   
4.88336581136e-06   
6.61082928209e-06   
7.62337714617e-06   
2.88296169173e-06   
4.8380329625e-06    
6.60312779373e-06   
7.70071628111e-06   
4.87581896256e-06   
6.6555789661e-06    
7.78209770274e-06   
6.24740489092e-06   
5.58966939252e-06   
5.27293856559e-06   
4.47520205522e-06   
6.32488914421e-06   
7.84881512532e-06   
8.59518175932e-06   
7.8604792822e-06    
7.89068255093e-06   
8.06213634167e-06   
8.29351448668e-06   
8.52814631845e-06   
9.14910830131e-06   
7.64082666011e-06   
5.31242340516e-06   
5.40044595234e-06   
7.20453367645e-06   
8.13186113694e-06   
7.54640568252e-06   
4.32276264575e-06   
3.23593166314e-06   
7.69376541225e-06   
4.88725255951e-06   
6.68165311134e-06   
7.83497452273e-06   
7.80600969586e-06   
6.10153387053e-06   
7.93723951002e-06   
9.13024095815e-06   
5.9096887542e-06    
4.27961457667e-06   
2.92877145281e-06   
3.18994090748e-06   
5.44050512501e-06   
7.01034460003e-06   
7.25350999243e-06   
7.87968317479e-06   
7.9485725479e-06    
6.71890097639e-06   
4.73865445025e-06   
8.38515079866e-05   
7.01316080355e-05   
7.9688182102e-05    
7.49727989667e-05   
7.02874757747e-05   
5.77228658128e-05   
6.58434512843e-05   
5.47009694459e-05   
6.16513580435e-05   
5.21649778878e-05   
5.76005578364e-05   
4.9886745817e-05    
5.36492171316e-05   
4.77104437897e-05   
4.97372516357e-05   
4.55220761573e-05   
4.58661604298e-05   
4.33140898204e-05   
4.204239469e-05     
4.11045118311e-05   
7.88032122949e-05   
6.49233673633e-05   
7.4815852414e-05    
7.02856735097e-05   
6.58232255385e-05   
5.45287988811e-05   
6.15544778359e-05   
5.194431183e-05     
5.7514482259e-05    
4.97013091197e-05   
5.35542766551e-05   
4.75430323164e-05   
4.96456811313e-05   
4.53755184376e-05   
4.57663481423e-05   
4.31708277891e-05   
4.19414334061e-05   
4.09673354229e-05   
3.81989285701e-05   
3.88038038204e-05   
2.51783702518e-05   
2.54867421121e-05   
2.66384447336e-05   
2.76694906211e-05   
2.90392038826e-05   
4.14888136083e-05   
4.14901098704e-05   
4.27024039855e-05   
4.36760322315e-05   
4.47141113989e-05   
4.4612781114e-05    
4.39966755068e-05   
4.28301971234e-05   
4.13290034975e-05   
4.12899737023e-05   
4.18616573993e-05   
4.75051460782e-05   
5.7277310672e-05    
7.54544019878e-05   
8.75830025061e-05   
8.71640084896e-05   
7.57112677321e-05   
7.38217310887e-05   
7.24976415493e-05   
7.03841843758e-05   
6.73297935162e-05   
6.35511288708e-05   
5.92502631792e-05   
5.46641391187e-05   
4.98917881976e-05   
4.49913466878e-05   
3.99599880049e-05   
3.99676477281e-05   
8.21893765017e-05   
8.13658444498e-05   
6.8729173794e-05    
4.12490304211e-05   
6.56676632265e-05   
7.65641965392e-05   
5.75620357386e-05   
7.39685855021e-05   
7.24727576989e-05   
9.83831336102e-05   
4.26628974031e-05   
7.03567554279e-05   
4.38289547309e-05   
6.73665387274e-05   
4.4497856482e-05    
6.35673147553e-05   
4.46242170304e-05   
5.92765124807e-05   
4.42956553921e-05   
5.46894430065e-05   
4.42904295429e-05   
4.99276437455e-05   
4.36026081332e-05   
3.83038359304e-05   
4.50270436572e-05   
4.26394545499e-05   
3.88191319119e-05   
0.000100150329309   
4.65705500193e-05   
7.97627951651e-05   
6.75401408802e-05   
7.49561242909e-05   
7.69010246658e-05   
6.8670547348e-05    
8.40186677286e-06   
1.01412195262e-05   
8.32728386378e-06   
1.00571907403e-05   
6.64398725371e-06   
8.74749517351e-06   
6.57677824446e-06   
8.64417716188e-06   
6.92761484022e-06   
6.27091470227e-06   
7.03799210166e-06   
5.69654081787e-06   
6.53899006159e-06   
8.54290129684e-06   
9.04724795843e-06   
1.00334448152e-05   
1.0104182745e-05    
1.04037549381e-05   
1.08143030201e-05   
9.47841267932e-06   
1.0180434778e-05    
8.43939634923e-06   
5.92662478192e-06   
6.67996894182e-06   
8.79848939225e-06   
9.39231828273e-06   
8.24634112736e-06   
5.83244830592e-06   
9.24810321286e-06   
9.93795715202e-06   
8.02982481339e-06   
8.09505946269e-06   
5.87866881901e-06   
7.86030532917e-05   
7.86037871217e-05   
7.86030532917e-05   
7.86037871217e-05   
7.86030569925e-05   
7.8603783421e-05    
7.86030569925e-05   
7.86037852714e-05   
2.18532160447e-05   
4.70861347076e-05   
6.53272888401e-05   
9.13546377864e-05   
5.14133744491e-05   
7.31098334407e-05   
8.67568028455e-05   
9.74519947911e-05   
0.000130922860311   
5.44973196206e-05   
6.91885144696e-05   
7.60722841517e-05   
7.64287339181e-05   
7.93022985434e-05   
7.80314810297e-05   
8.77009869943e-05   
8.77003957458e-05   
5.36242202172e-05   
7.25471899007e-05   
7.2901856559e-05    
7.87590358646e-05   
7.75517828693e-05   
7.47564993559e-05   
7.21148878264e-05   
6.94841023017e-05   
6.681217207e-05     
6.41161523966e-05   
6.1434762749e-05    
6.81763311869e-05   
4.61029411669e-05   
7.86036381606e-05   
7.70180123202e-05   
5.43280943688e-05   
7.85416689613e-05   
7.84622513573e-05   
6.9003365247e-05    
7.73304560602e-05   
5.76990456268e-05   
7.86030551421e-05   
7.45680554797e-05   
8.94237052149e-05   
5.16851072777e-05   
7.13827949172e-05   
8.92463059355e-05   
0.00010527991709    
7.19080015907e-05   
6.92984349863e-05   
6.6647113198e-05    
6.39753679206e-05   
6.13027174081e-05   
0.000119902308417   
8.87973960928e-05   
8.87654855451e-05   
8.87596063996e-05   
8.87256365303e-05   
8.52230369221e-05   
8.52372620269e-05   
8.52702946436e-05   
8.5240696443e-05    
7.97298141314e-05   
7.98698659449e-05   
8.02469311741e-05   
8.06981484958e-05   
7.17100135857e-05   
7.2805745238e-05    
7.4161921185e-05    
7.53747137325e-05   
6.57484642297e-05   
6.86134466956e-05   
7.04339286027e-05   
8.57398560764e-05   
8.57292877447e-05   
8.57275797153e-05   
8.56811978172e-05   
8.10534198975e-05   
8.1154938439e-05    
8.15242154306e-05   
8.19840568023e-05   
7.32472291328e-05   
7.43859927575e-05   
7.5788271461e-05    
7.70283084621e-05   
6.33602908199e-05   
6.65974627677e-05   
6.94888958051e-05   
7.13106129946e-05   
5.96355862735e-05   
6.40518123839e-05   
6.61093426798e-05   
8.81604805086e-05   
8.53148313508e-05   
8.64611361617e-05   
8.10314641631e-05   
7.22989631662e-05   
6.1180093186e-05    
5.94397098494e-05   
7.81010541278e-05   
9.08265979268e-05   
9.04459670384e-05   
6.56469823343e-05   
6.53644454371e-05   
7.16472335757e-05   
7.77966710669e-05   
8.23839073526e-05   
8.5564387265e-05    
8.86523460434e-05   
9.17404147858e-05   
9.18036454799e-05   
9.18073544844e-05   
9.18089243702e-05   
8.88022587343e-05   
8.61041393096e-05   
8.87760498795e-05   
8.87757457073e-05   
8.87446937251e-05   
8.86328179567e-05   
8.19328441466e-05   
8.51273324052e-05   
7.35918795545e-05   
8.10924479445e-05   
6.22458883527e-05   
6.15228075868e-05   
7.61325402946e-05   
5.97873589348e-05   
0.00010141371362    
6.43074460515e-05   
7.0776020528e-05    
6.6394907021e-05    
8.90395701768e-05   
0.000103059479928   
9.15935373704e-05   
8.77098993479e-05   
7.55842821445e-05   
8.13783250866e-05   
6.7649962476e-05    
7.55172110822e-05   
6.0742439281e-05    
7.02076079213e-05   
6.53892832097e-05   
6.09028105422e-05   
5.6570735724e-05    
5.22646147757e-05   
4.79620888073e-05   
4.37071814282e-05   
8.18729233637e-05   
6.78120613048e-05   
7.58798601003e-05   
6.08231687736e-05   
7.04486313687e-05   
5.51986254465e-05   
6.55117200506e-05   
6.09284637516e-05   
5.65424573911e-05   
5.22225764532e-05   
4.78971111948e-05   
4.35935547581e-05   
3.93903838498e-05   
9.6168791706e-05    
9.16036383266e-05   
9.21534760245e-05   
8.88925225313e-05   
8.54479154816e-05   
7.65388076805e-05   
7.11098834763e-05   
6.56433478653e-05   
6.03918937951e-05   
5.54145662211e-05   
5.06323266849e-05   
4.5865117127e-05    
4.58336426169e-05   
7.52087531772e-05   
2.90995445079e-05   
2.81017538351e-05   
2.72546131835e-05   
2.87445296817e-05   
5.3062696417e-05    
5.81546089471e-05   
6.05723891239e-05   
6.61837733356e-05   
6.58222566791e-05   
6.54221126342e-05   
8.09068455946e-05   
7.53474428492e-05   
4.29648841221e-05   
4.27809516504e-05   
4.80070540189e-05   
6.20281835099e-05   
7.12179868064e-05   
8.41977279394e-05   
9.53267585818e-05   
8.75535877481e-05   
8.84198900342e-05   
7.5956684336e-05    
5.44618524951e-05   