# vtk DataFile Version 3.0
PyPan mesh file. Generated by PyPan, USU AeroLab (c) 2020.
ASCII
DATASET POLYDATA
POINTS 6517 float
0.0                 0.0                 0.0                 
0.0                 0.0510472208261     0.0                 
0.0                 0.102911889553      0.0                 
0.0                 0.155575945973      0.0                 
0.0                 0.209019616246      0.0                 
0.0                 0.263221412897      0.0                 
0.0                 0.318158149719      0.0                 
0.0                 0.373804926872      0.0                 
0.0                 0.430135160685      0.0                 
0.0                 0.487120658159      0.0                 
0.0                 0.544731616974      0.0                 
0.0                 0.602936685085      0.0                 
0.0                 0.661702930927      0.0                 
0.0                 0.720996081829      0.0                 
0.0                 0.780780434608      0.0                 
0.0                 0.841019034386      0.0                 
0.0                 0.901673555374      0.0                 
0.0                 0.962704777718      0.0                 
0.0                 1.02407228947       0.0                 
0.0                 1.085734725         0.0                 
0.0                 1.14765012264       0.0                 
0.0                 1.20977556705       0.0                 
0.0                 1.27206754684       0.0                 
0.0                 1.33448243141       0.0                 
0.0                 1.39697575569       0.0                 
0.0                 1.45950317383       0.0                 
0.0                 1.52202010155       0.0                 
0.0                 1.58448207378       0.0                 
0.0                 1.64684462547       0.0                 
0.0                 1.70906376839       0.0                 
0.0                 1.77109575272       0.0                 
0.0                 1.8328974247        0.0                 
0.0                 1.89442634583       0.0                 
0.0                 1.95564067364       0.0                 
0.0                 2.01649975777       0.0                 
0.0                 2.07696342468       0.0                 
0.0                 2.13699293137       0.0                 
0.0                 2.1965508461        0.0                 
0.0                 2.25560045242       0.0                 
0.0                 2.3141067028        0.0                 
0.0                 2.37203645706       0.0                 
0.0                 2.42935681343       0.0                 
0.0                 2.48603773117       0.0                 
0.0                 2.5420498848        0.0                 
0.0                 2.59736585617       0.0                 
0.0                 2.65195989609       0.0                 
0.0                 2.70580768585       0.0                 
0.0                 2.75888729095       0.0                 
0.0                 2.81117749214       0.0                 
0.0                 2.86265993118       0.0                 
0.0                 2.91331672668       0.0                 
0.0                 2.96313285828       0.0                 
0.0                 3.01209402084       0.0                 
0.0                 3.06018829346       0.0                 
0.0                 3.1074051857        0.0                 
0.0                 3.15373587608       0.0                 
0.0                 3.1991724968        0.0                 
0.0                 3.24370956421       0.0                 
0.0                 3.28734278679       0.0                 
0.0                 3.33006930351       0.0                 
0.0                 3.37188720703       0.0                 
0.0                 3.41279649734       0.0                 
0.0                 3.45279836655       0.0                 
0.0                 3.49189519882       0.0                 
0.0                 3.53009009361       0.0                 
0.0                 3.56738781929       0.0                 
0.0                 3.6037940979        0.0                 
0.0                 3.63931536674       0.0                 
0.0                 3.67395877838       0.0                 
0.0                 3.70773339272       0.0                 
0.0                 3.74064779282       0.0                 
0.0                 3.77271175385       0.0                 
0.0                 3.80393624306       0.0                 
0.0                 3.83433246613       0.0                 
0.0                 3.86391162872       0.0                 
0.0                 3.89268636703       0.0                 
0.0                 3.92066931725       0.0                 
0.0                 3.94787359238       0.0                 
0.0                 3.97431254387       0.0                 
0.0                 4.0                 0.0                 
0.00674483925104    0.0                 -0.000590096984524  
0.00674483925104    0.0                 0.000590096984524   
0.00674483925104    0.0510472208261     -0.000590096984524  
0.00674483925104    0.0510472208261     0.000590096984524   
0.00674483925104    0.102911889553      -0.000590096984524  
0.00674483925104    0.102911889553      0.000590096984524   
0.00674483925104    0.155575945973      -0.000590096984524  
0.00674483925104    0.155575945973      0.000590096984524   
0.00674483925104    0.209019616246      -0.000590096984524  
0.00674483925104    0.209019616246      0.000590096984524   
0.00674483925104    0.263221412897      -0.000590096984524  
0.00674483925104    0.263221412897      0.000590096984524   
0.00674483925104    0.318158149719      -0.000590096984524  
0.00674483925104    0.318158149719      0.000590096984524   
0.00674483925104    0.373804926872      -0.000590096984524  
0.00674483925104    0.373804926872      0.000590096984524   
0.00674483925104    0.430135160685      -0.000590096984524  
0.00674483925104    0.430135160685      0.000590096984524   
0.00674483925104    0.487120658159      -0.000590096984524  
0.00674483925104    0.487120658159      0.000590096984524   
0.00674483925104    0.544731616974      -0.000590096984524  
0.00674483925104    0.544731616974      0.000590096984524   
0.00674483925104    0.602936685085      -0.000590096984524  
0.00674483925104    0.602936685085      0.000590096984524   
0.00674483925104    0.661702930927      -0.000590096984524  
0.00674483925104    0.661702930927      0.000590096984524   
0.00674483925104    0.720996081829      -0.000590096984524  
0.00674483925104    0.720996081829      0.000590096984524   
0.00674483925104    0.780780434608      -0.000590096984524  
0.00674483925104    0.780780434608      0.000590096984524   
0.00674483925104    0.841019034386      -0.000590096984524  
0.00674483925104    0.841019034386      0.000590096984524   
0.00674483925104    0.901673555374      -0.000590096984524  
0.00674483925104    0.901673555374      0.000590096984524   
0.00674483925104    0.962704777718      -0.000590096984524  
0.00674483925104    0.962704777718      0.000590096984524   
0.00674483925104    1.02407228947       -0.000590096984524  
0.00674483925104    1.02407228947       0.000590096984524   
0.00674483925104    1.085734725         -0.000590096984524  
0.00674483925104    1.085734725         0.000590096984524   
0.00674483925104    1.14765012264       -0.000590096984524  
0.00674483925104    1.14765012264       0.000590096984524   
0.00674483925104    1.20977556705       -0.000590096984524  
0.00674483925104    1.20977556705       0.000590096984524   
0.00674483925104    1.27206754684       -0.000590096984524  
0.00674483925104    1.27206754684       0.000590096984524   
0.00674483925104    1.33448243141       -0.000590096984524  
0.00674483925104    1.33448243141       0.000590096984524   
0.00674483925104    1.39697575569       -0.000590096984524  
0.00674483925104    1.39697575569       0.000590096984524   
0.00674483925104    1.45950317383       -0.000590096984524  
0.00674483925104    1.45950317383       0.000590096984524   
0.00674483925104    1.52202010155       -0.000590096984524  
0.00674483925104    1.52202010155       0.000590096984524   
0.00674483925104    1.58448207378       -0.000590096984524  
0.00674483925104    1.58448207378       0.000590096984524   
0.00674483925104    1.64684462547       -0.000590096984524  
0.00674483925104    1.64684462547       0.000590096984524   
0.00674483925104    1.70906376839       -0.000590096984524  
0.00674483925104    1.70906376839       0.000590096984524   
0.00674483925104    1.77109575272       -0.000590096984524  
0.00674483925104    1.77109575272       0.000590096984524   
0.00674483925104    1.8328974247        -0.000590096984524  
0.00674483925104    1.8328974247        0.000590096984524   
0.00674483925104    1.89442634583       -0.000590096984524  
0.00674483925104    1.89442634583       0.000590096984524   
0.00674483925104    1.95564067364       -0.000590096984524  
0.00674483925104    1.95564067364       0.000590096984524   
0.00674483925104    2.01649975777       -0.000590096984524  
0.00674483925104    2.01649975777       0.000590096984524   
0.00674483925104    2.07696342468       -0.000590096984524  
0.00674483925104    2.07696342468       0.000590096984524   
0.00674483925104    2.13699293137       -0.000590096984524  
0.00674483925104    2.13699293137       0.000590096984524   
0.00674483925104    2.1965508461        -0.000590096984524  
0.00674483925104    2.1965508461        0.000590096984524   
0.00674483925104    2.25560045242       -0.000590096984524  
0.00674483925104    2.25560045242       0.000590096984524   
0.00674483925104    2.3141067028        -0.000590096984524  
0.00674483925104    2.3141067028        0.000590096984524   
0.00674483925104    2.37203645706       -0.000590096984524  
[...]
CELL_DATA 12952
SCALARS panel_area float 1
LOOKUP_TABLE default
0.00017281081285    
0.00017281081285    
0.000200590965958   
0.000200590965958   
0.00023228516873    
0.00023228516873    
0.00026824924225    
0.00026824924225    
0.000308799311661   
0.000308799311661   
0.000354184284114   
0.000354184284114   
0.000404538579282   
0.000404538579282   
0.000459848424226   
0.000459848424226   
0.000519886287539   
0.000519886287539   
0.000584163480773   
0.000584163480773   
0.000651873683734   
0.000651873683734   
0.000721856252553   
0.000721856252553   
0.000792568806396   
0.000792568806396   
0.000862111556855   
0.000862111556855   
0.000928267149031   
0.000928267149031   
0.000988625702096   
0.000988625702096   
0.00104071328905    
0.00104071328905    
0.00108219490359    
0.00108219490359    
0.00111107917873    
0.00111107917873    
0.00112590615271    
0.00112590615271    
0.00112590615271    
0.00112590615271    
0.00111107917873    
0.00111107917873    
0.00108219490359    
0.00108219490359    
0.00104071253128    
0.00104071253128    
0.000988625702096   
0.000988625702096   
0.000928268664568   
0.000928268664568   
0.000862110420202   
0.000862110420202   
0.000792568806396   
0.000792568806396   
0.000721855873669   
0.000721855873669   
0.000651874062618   
0.000651874062618   
0.000584163859657   
0.000584163859657   
0.000519886476981   
0.000519886476981   
0.000459848424226   
0.000459848424226   
0.000404538768724   
0.000404538768724   
0.000354183431625   
0.000354183431625   
0.000308799690545   
0.000308799690545   
0.000268249431692   
0.000268249431692   
0.000232285571294   
0.000232285571294   
0.000200591036999   
0.000200591036999   
0.000172810244524   
0.000172810244524   
0.000172810244524   
0.000172810244524   
0.000200591036999   
0.000200591036999   
0.000232285571294   
0.000232285571294   
0.000268249431692   
0.000268249431692   
0.000308799690545   
0.000308799690545   
0.000354183431625   
0.000354183431625   
0.000404538768724   
0.000404538768724   
0.000459848424226   
0.000459848424226   
0.000519886476981   
0.000519886476981   
0.000584163859657   
0.000584163859657   
0.000651874062618   
0.000651874062618   
0.000721855873669   
0.000721855873669   
0.000792568806396   
0.000792568806396   
0.000862110420202   
0.000862110420202   
0.000928268664568   
0.000928268664568   
0.000988625702096   
0.000988625702096   
0.00104071253128    
0.00104071253128    
0.00108219490359    
0.00108219490359    
0.00111107917873    
0.00111107917873    
0.00112590615271    
0.00112590615271    
0.00112590615271    
0.00112590615271    
0.00111107917873    
0.00111107917873    
0.00108219490359    
0.00108219490359    
0.00104071328905    
0.00104071328905    
0.000988625702096   
0.000988625702096   
0.000928267149031   
0.000928267149031   
0.000862111556855   
0.000862111556855   
0.000792568806396   
0.000792568806396   
0.000721856252553   
0.000721856252553   
0.000651873683734   
0.000651873683734   
0.000584163480773   
0.000584163480773   
0.000519886287539   
0.000519886287539   
0.000459848424226   
0.000459848424226   
0.000404538579282   
0.000404538579282   
0.000354184284114   
0.000354184284114   
0.000308799311661   
0.000308799311661   
0.00026824924225    
0.00026824924225    
0.00023228516873    
0.00023228516873    
0.000200590965958   
0.000200590965958   
0.00017281081285    
0.00017281081285    
0.000175578129737   
0.000175578129737   
0.000203803142084   
0.000203803142084   
0.000236004881977   
0.000236004881977   
0.000272544868464   
0.000272544868464   
0.000313744288978   
0.000313744288978   
0.000359856036559   
0.000359856036559   
0.000411016683419   
0.000411016683419   
0.000467212236064   
0.000467212236064   
0.000528211519501   
0.000528211519501   
0.000593518019636   
0.000593518019636   
0.000662312504217   
0.000662312504217   
0.000733415743329   
0.000733415743329   
0.000805260657128   
0.000805260657128   
0.000875917034822   
0.000875917034822   
0.000943132013759   
0.000943132013759   
0.00100445712233    
0.00100445712233    
0.00105737881716    
0.00105737881716    
0.00109952470016    
0.00109952470016    
0.00112887151547    
0.00112887151547    
0.00114393592213    
0.00114393592213    
0.00114393592213    
0.00114393592213    
0.00112887151547    
0.00112887151547    
0.00109952470016    
0.00109952470016    
0.00105737804725    
0.00105737804725    
0.00100445712233    
0.00100445712233    
0.000943133553565   
0.000943133553565   
0.000875915879967   
0.000875915879967   
0.000805260657128   
0.000805260657128   
0.000733415358378   
0.000733415358378   
0.000662312889168   
0.000662312889168   
0.000593518404587   
0.000593518404587   
0.000528211711976   
0.000528211711976   
0.000467212236064   
0.000467212236064   
0.000411016875895   
0.000411016875895   
0.000359855170418   
0.000359855170418   
0.00031374467393    
0.00031374467393    
0.00027254506094    
0.00027254506094    
0.000236005290988   
0.000236005290988   
0.000203803214262   
0.000203803214262   
0.000175577552309   
0.000175577552309   
0.000175577552309   
0.000175577552309   
0.000203803214262   
0.000203803214262   
0.000236005290988   
0.000236005290988   
0.00027254506094    
0.00027254506094    
0.00031374467393    
0.00031374467393    
0.000359855170418   
0.000359855170418   
0.000411016875895   
0.000411016875895   
0.000467212236064   
0.000467212236064   
0.000528211711976   
0.000528211711976   
0.000593518404587   
0.000593518404587   
0.000662312889168   
0.000662312889168   
0.000733415358378   
0.000733415358378   
0.000805260657128   
0.000805260657128   
0.000875915879967   
0.000875915879967   
0.000943133553565   
0.000943133553565   
0.00100445712233    
0.00100445712233    
0.00105737804725    
0.00105737804725    
0.00109952470016    
0.00109952470016    
0.00112887151547    
0.00112887151547    
0.00114393592213    
0.00114393592213    
0.00114393592213    
0.00114393592213    
0.00112887151547    
0.00112887151547    
0.00109952470016    
0.00109952470016    
0.00105737881716    
0.00105737881716    
0.00100445712233    
0.00100445712233    
0.000943132013759   
0.000943132013759   
0.000875917034822   
0.000875917034822   
0.000805260657128   
0.000805260657128   
0.000733415743329   
0.000733415743329   
0.000662312504217   
0.000662312504217   
0.000593518019636   
0.000593518019636   
0.000528211519501   
0.000528211519501   
0.000467212236064   
0.000467212236064   
0.000411016683419   
0.000411016683419   
0.000359856036559   
0.000359856036559   
0.000313744288978   
0.000313744288978   
0.000272544868464   
0.000272544868464   
0.000236004881977   
0.000236004881977   
0.000203803142084   
0.000203803142084   
0.000175578129737   
0.000175578129737   
0.000178284307171   
0.000178284307171   
0.000206944350303   
0.000206944350303   
0.000239642414094   
0.000239642414094   
0.00027674558967    
0.00027674558967    
0.00031858001491    
0.00031858001491    
0.000365402480681   
0.000365402480681   
0.000417351664179   
0.000417351664179   
0.000474413356227   
0.000474413356227   
0.000536352818743   
0.000536352818743   
0.000602665884885   
0.000602665884885   
0.000672520695613   
0.000672520695613   
0.000744719845597   
0.000744719845597   
0.000817672101665   
0.000817672101665   
0.000889417502775   
0.000889417502775   
0.000957668463014   
0.000957668463014   
0.00101993877259    
0.00101993877259    
0.001073676147      
0.001073676147      
0.00111647162251    
0.00111647162251    
0.0011462707589     
0.0011462707589     
0.00116156735255    
0.00116156735255    
0.00116156735255    
0.00116156735255    
0.0011462707589     
0.0011462707589     
0.00111647162251    
0.00111647162251    
0.00107367536523    
0.00107367536523    
0.00101993877259    
0.00101993877259    
0.000957670026553   
0.000957670026553   
0.000889416330121   
0.000889416330121   
0.000817672101665   
0.000817672101665   
0.000744719454712   
0.000744719454712   
0.000672521086497   
0.000672521086497   
0.00060266627577    
0.00060266627577    
0.000536353014185   
0.000536353014185   
0.000474413356227   
0.000474413356227   
0.000417351859621   
0.000417351859621   
0.000365401601191   
0.000365401601191   
0.000318580405794   
0.000318580405794   
0.000276745785112   
0.000276745785112   
0.000239642829409   
0.000239642829409   
0.000206944423593   
0.000206944423593   
0.000178283720844   
0.000178283720844   
0.000178283720844   
0.000178283720844   
0.000206944423593   
0.000206944423593   
0.000239642829409   
0.000239642829409   
0.000276745785112   
0.000276745785112   
0.000318580405794   
0.000318580405794   
0.000365401601191   
0.000365401601191   
0.000417351859621   
0.000417351859621   
0.000474413356227   
0.000474413356227   
0.000536353014185   
0.000536353014185   
0.00060266627577    
0.00060266627577    
0.000672521086497   
0.000672521086497   
0.000744719454712   
0.000744719454712   
0.000817672101665   
0.000817672101665   
0.000889416330121   
0.000889416330121   
0.000957670026553   
0.000957670026553   
0.00101993877259    
0.00101993877259    
0.00107367536523    
0.00107367536523    
0.00111647162251    
0.00111647162251    
0.0011462707589     
0.0011462707589     
0.00116156735255    
0.00116156735255    
0.00116156735255    
0.00116156735255    
0.0011462707589     
0.0011462707589     
0.00111647162251    
0.00111647162251    
0.001073676147      
0.001073676147      
0.00101993877259    
0.00101993877259    
0.000957668463014   
0.000957668463014   
0.000889417502775   
0.000889417502775   
0.000817672101665   
0.000817672101665   
0.000744719845597   
0.000744719845597   
0.000672520695613   
0.000672520695613   
0.000602665884885   
0.000602665884885   
0.000536352818743   
0.000536352818743   
0.000474413356227   
0.000474413356227   
0.000417351664179   
0.000417351664179   
0.000365402480681   
0.000365402480681   
0.00031858001491    
0.00031858001491    
0.00027674558967    
0.00027674558967    
0.000239642414094   
0.000239642414094   
0.000206944350303   
0.000206944350303   
0.000178284307171   
0.000178284307171   
0.000180923543967   
0.000180923543967   
0.00021000785686    
0.00021000785686    
0.000243189967367   
0.000243189967367   
0.000280842400854   
0.000280842400854   
0.000323296123194   
0.000323296123194   
0.000370811726665   
0.000370811726665   
0.000423529941374   
0.000423529941374   
0.000481436347798   
0.000481436347798   
0.000544292732903   
0.000544292732903   
0.000611587466401   
0.000611587466401   
0.0006824763748     
0.0006824763748     
0.000755744326948   
0.000755744326948   
0.000829776533807   
0.000829776533807   
0.000902584019997   
0.000902584019997   
0.000971845335261   
0.000971845335261   
0.00103503746513    
0.00103503746513    
0.00108957034229    
0.00108957034229    
0.00113299934184    
0.00113299934184    
0.00116323961059    
0.00116323961059    
0.00117876264779    
0.00117876264779    
0.00117876264779    
0.00117876264779    
0.00116323961059    
0.00116323961059    
0.00113299934184    
0.00113299934184    
0.00108956954895    
0.00108956954895    
0.00103503746513    
0.00103503746513    
0.000971846921945   
0.000971846921945   
0.000902582829984   
0.000902582829984   
0.000829776533807   
0.000829776533807   
0.000755743930277   
0.000755743930277   
0.000682476771471   
0.000682476771471   
0.000611587863072   
0.000611587863072   
0.000544292931239   
0.000544292931239   
0.000481436347798   
0.000481436347798   
0.000423530139709   
0.000423530139709   
0.000370810834155   
0.000370810834155   
0.000323296519865   
0.000323296519865   
0.000280842599189   
0.000280842599189   
0.00024319038883    
0.00024319038883    
0.000210007931236   
0.000210007931236   
0.00018092294896    
0.00018092294896    
0.00018092294896    
0.00018092294896    
0.000210007931236   
0.000210007931236   
0.00024319038883    
0.00024319038883    
0.000280842599189   
0.000280842599189   
0.000323296519865   
0.000323296519865   
0.000370810834155   
0.000370810834155   
0.000423530139709   
0.000423530139709   
0.000481436347798   
0.000481436347798   
0.000544292931239   
0.000544292931239   
0.000611587863072   
0.000611587863072   
0.000682476771471   
0.000682476771471   
0.000755743930277   
0.000755743930277   
0.000829776533807   
0.000829776533807   
0.000902582829984   
0.000902582829984   
0.000971846921945   
0.000971846921945   
0.00103503746513    
0.00103503746513    
0.00108956954895    
0.00108956954895    
0.00113299934184    
0.00113299934184    
0.00116323961059    
0.00116323961059    
0.00117876264779    
0.00117876264779    
0.00117876264779    
0.00117876264779    
0.00116323961059    
0.00116323961059    
0.00113299934184    
0.00113299934184    
0.00108957034229    
0.00108957034229    
0.00103503746513    
0.00103503746513    
0.000971845335261   
0.000971845335261   
0.000902584019997   
0.000902584019997   
0.000829776533807   
0.000829776533807   
0.000755744326948   
0.000755744326948   
0.0006824763748     
0.0006824763748     
0.000611587466401   
0.000611587466401   
0.000544292732903   
0.000544292732903   
0.000481436347798   
0.000481436347798   
0.000423529941374   
0.000423529941374   
0.000370811726665   
0.000370811726665   
0.000323296123194   
0.000323296123194   
0.000280842400854   
0.000280842400854   
0.000243189967367   
0.000243189967367   
0.00021000785686    
0.00021000785686    
0.000180923543967   
0.000180923543967   
0.00018349003894    
0.00018349003894    
0.000212986928003   
0.000212986928003   
0.000246639744079   
0.000246639744079   
0.000284826297002   
0.000284826297002   
0.000327882247568   
0.000327882247568   
0.000376071884694   
0.000376071884694   
0.000429537934814   
0.000429537934814   
0.00048826577386    
0.00048826577386    
0.00055201380962    
0.00055201380962    
0.000620263154062   
0.000620263154062   
0.000692157658654   
0.000692157658654   
0.000766464954973   
0.000766464954973   
0.000841547347356   
0.000841547347356   
0.000915387645767   
0.000915387645767   
0.000985631468966   
0.000985631468966   
0.00104972001221    
0.00104972001221    
0.00110502646671    
0.00110502646671    
0.0011490715293     
0.0011490715293     
0.00117974077206    
0.00117974077206    
0.00119548401166    
0.00119548401166    
0.00119548401166    
0.00119548401166    
0.00117974077206    
0.00117974077206    
0.0011490715293     
0.0011490715293     
0.00110502566211    
0.00110502566211    
0.00104972001221    
0.00104972001221    
0.000985633078158   
0.000985633078158   
0.000915386438873   
0.000915386438873   
0.000841547347356   
0.000841547347356   
0.000766464552675   
0.000766464552675   
0.000692158060952   
0.000692158060952   
0.00062026355636    
0.00062026355636    
0.000552014010769   
0.000552014010769   
0.00048826577386    
0.00048826577386    
0.000429538135963   
0.000429538135963   
0.000376070979523   
0.000376070979523   
0.000327882649867   
0.000327882649867   
0.000284826498151   
0.000284826498151   
0.000246640171521   
0.000246640171521   
0.000212987003434   
0.000212987003434   
0.000183489435493   
0.000183489435493   
0.000183489435493   
0.000183489435493   
0.000212987003434   
0.000212987003434   
0.000246640171521   
0.000246640171521   
0.000284826498151   
0.000284826498151   
0.000327882649867   
0.000327882649867   
0.000376070979523   
0.000376070979523   
0.000429538135963   
0.000429538135963   
0.00048826577386    
0.00048826577386    
0.000552014010769   
0.000552014010769   
0.00062026355636    
0.00062026355636    
0.000692158060952   
0.000692158060952   
0.000766464552675   
0.000766464552675   
0.000841547347356   
0.000841547347356   
0.000915386438873   
0.000915386438873   
0.000985633078158   
0.000985633078158   
0.00104972001221    
0.00104972001221    
0.00110502566211    
0.00110502566211    
0.0011490715293     
0.0011490715293     
0.00117974077206    
0.00117974077206    
0.00119548401166    
0.00119548401166    
0.00119548401166    
0.00119548401166    
0.00117974077206    
0.00117974077206    
0.0011490715293     
0.0011490715293     
0.00110502646671    
0.00110502646671    
0.00104972001221    
0.00104972001221    
0.000985631468966   
0.000985631468966   
0.000915387645767   
0.000915387645767   
0.000841547347356   
0.000841547347356   
0.000766464954973   
0.000766464954973   
0.000692157658654   
0.000692157658654   
0.000620263154062   
0.000620263154062   
0.00055201380962    
0.00055201380962    
0.00048826577386    
0.00048826577386    
0.000429537934814   
0.000429537934814   
0.000376071884694   
0.000376071884694   
0.000327882247568   
0.000327882247568   
0.000284826297002   
0.000284826297002   
0.000246639744079   
0.000246639744079   
0.000212986928003   
0.000212986928003   
0.00018349003894    
0.00018349003894    
0.000185978041349   
0.000185978041349   
0.000215874888532   
0.000215874888532   
0.000249984014324   
0.000249984014324   
0.000288688351407   
0.000288688351407   
0.000332328111914   
0.000332328111914   
0.000381171168342   
0.000381171168342   
0.000435362182402   
0.000435362182402   
0.000494886331732   
0.000494886331732   
0.000559498748291   
0.000559498748291   
0.000628673508272   
0.000628673508272   
0.000701542854341   
0.000701542854341   
0.000776857707983   
0.000776857707983   
0.000852958167472   
0.000852958167472   
0.000927799691026   
0.000927799691026   
0.000998995973564   
0.000998995973564   
0.00106395351466    
0.00106395351466    
0.00112000988776    
0.00112000988776    
0.00116465217199    
0.00116465217199    
0.0011957372692     
0.0011957372692     
0.00121169397661    
0.00121169397661    
0.00121169397661    
0.00121169397661    
0.0011957372692     
0.0011957372692     
0.00116465217199    
0.00116465217199    
0.00112000907225    
0.00112000907225    
0.00106395351466    
0.00106395351466    
0.000998997604576   
0.000998997604576   
0.000927798467767   
0.000927798467767   
0.000852958167472   
0.000852958167472   
0.00077685730023    
0.00077685730023    
0.000701543262094   
0.000701543262094   
0.000628673916025   
0.000628673916025   
0.000559498952167   
0.000559498952167   
0.000494886331732   
0.000494886331732   
0.000435362386278   
0.000435362386278   
0.000381170250897   
0.000381170250897   
0.000332328519667   
0.000332328519667   
0.000288688555283   
0.000288688555283   
0.000249984447561   
0.000249984447561   
0.000215874964986   
0.000215874964986   
0.00018597742972    
0.00018597742972    
0.00018597742972    
0.00018597742972    
0.000215874964986   
0.000215874964986   
0.000249984447561   
0.000249984447561   
0.000288688555283   
0.000288688555283   
0.000332328519667   
0.000332328519667   
0.000381170250897   
0.000381170250897   
0.000435362386278   
0.000435362386278   
0.000494886331732   
0.000494886331732   
0.000559498952167   
0.000559498952167   
0.000628673916025   
0.000628673916025   
0.000701543262094   
0.000701543262094   
0.00077685730023    
0.00077685730023    
0.000852958167472   
0.000852958167472   
0.000927798467767   
0.000927798467767   
0.000998997604576   
0.000998997604576   
0.00106395351466    
0.00106395351466    
0.00112000907225    
0.00112000907225    
0.00116465217199    
0.00116465217199    
0.0011957372692     
0.0011957372692     
0.00121169397661    
0.00121169397661    
0.00121169397661    
0.00121169397661    
0.0011957372692     
0.0011957372692     
0.00116465217199    
0.00116465217199    
0.00112000988776    
0.00112000988776    
0.00106395351466    
0.00106395351466    
0.000998995973564   
0.000998995973564   
0.000927799691026   
0.000927799691026   
0.000852958167472   
0.000852958167472   
0.000776857707983   
0.000776857707983   
0.000701542854341   
0.000701542854341   
0.000628673508272   
0.000628673508272   
0.000559498748291   
0.000559498748291   
0.000494886331732   
0.000494886331732   
0.000435362182402   
0.000435362182402   
0.000381171168342   