# vtk DataFile Version 3.0
PyPan mesh file. Generated by PyPan, USU AeroLab (c) 2020.
ASCII
DATASET POLYDATA
POINTS 1657 float
0.0                 0.0                 0.0                 
0.0                 0.10425234586       0.0                 
0.0                 0.211780935526      0.0                 
0.0                 0.322413772345      0.0                 
0.0                 0.435950160027      0.0                 
0.0                 0.55216127634       0.0                 
0.0                 0.670791566372      0.0                 
0.0                 0.791560173035      0.0                 
0.0                 0.914163351059      0.0                 
0.0                 1.03827738762       0.0                 
0.0                 1.16356134415       0.0                 
0.0                 1.28966128826       0.0                 
0.0                 1.41621339321       0.0                 
0.0                 1.54284906387       0.0                 
0.0                 1.66919851303       0.0                 
0.0                 1.79489517212       0.0                 
0.0                 1.91958034039       0.0                 
0.0                 2.04290652275       0.0                 
0.0                 2.16454195976       0.0                 
0.0                 2.28417348862       0.0                 
0.0                 2.40150952339       0.0                 
0.0                 2.51628303528       0.0                 
0.0                 2.62825274467       0.0                 
0.0                 2.73720526695       0.0                 
0.0                 2.84295582771       0.0                 
0.0                 2.94534778595       0.0                 
0.0                 3.04425406456       0.0                 
0.0                 3.139575243         0.0                 
0.0                 3.23123931885       0.0                 
0.0                 3.31920027733       0.0                 
0.0                 3.40343642235       0.0                 
0.0                 3.483948946         0.0                 
0.0                 3.56075930595       0.0                 
0.0                 3.63390779495       0.0                 
0.0                 3.70345163345       0.0                 
0.0                 3.76946210861       0.0                 
0.0                 3.83202338219       0.0                 
0.0                 3.89123010635       0.0                 
0.0                 3.94718551636       0.0                 
0.0                 4.0                 0.0                 
0.0145739717409     0.0                 -0.00127505732235   
0.0145739717409     0.0                 0.00127505732235    
0.0145739717409     0.10425234586       -0.00127505732235   
0.0145739717409     0.10425234586       0.00127505732235    
0.0145739717409     0.211780935526      -0.00127505732235   
0.0145739717409     0.211780935526      0.00127505732235    
0.0145739717409     0.322413772345      -0.00127505732235   
0.0145739717409     0.322413772345      0.00127505732235    
0.0145739717409     0.435950160027      -0.00127505732235   
0.0145739717409     0.435950160027      0.00127505732235    
0.0145739717409     0.55216127634       -0.00127505732235   
0.0145739717409     0.55216127634       0.00127505732235    
0.0145739717409     0.670791566372      -0.00127505732235   
0.0145739717409     0.670791566372      0.00127505732235    
0.0145739717409     0.791560173035      -0.00127505732235   
0.0145739717409     0.791560173035      0.00127505732235    
0.0145739717409     0.914163351059      -0.00127505732235   
0.0145739717409     0.914163351059      0.00127505732235    
0.0145739717409     1.03827738762       -0.00127505732235   
0.0145739717409     1.03827738762       0.00127505732235    
0.0145739717409     1.16356134415       -0.00127505732235   
0.0145739717409     1.16356134415       0.00127505732235    
0.0145739717409     1.28966128826       -0.00127505732235   
0.0145739717409     1.28966128826       0.00127505732235    
0.0145739717409     1.41621339321       -0.00127505732235   
0.0145739717409     1.41621339321       0.00127505732235    
0.0145739717409     1.54284906387       -0.00127505732235   
0.0145739717409     1.54284906387       0.00127505732235    
0.0145739717409     1.66919851303       -0.00127505732235   
0.0145739717409     1.66919851303       0.00127505732235    
0.0145739717409     1.79489517212       -0.00127505732235   
0.0145739717409     1.79489517212       0.00127505732235    
0.0145739717409     1.91958034039       -0.00127505732235   
0.0145739717409     1.91958034039       0.00127505732235    
0.0145739717409     2.04290652275       -0.00127505732235   
0.0145739717409     2.04290652275       0.00127505732235    
0.0145739717409     2.16454195976       -0.00127505732235   
0.0145739717409     2.16454195976       0.00127505732235    
0.0145739717409     2.28417348862       -0.00127505732235   
0.0145739717409     2.28417348862       0.00127505732235    
0.0145739717409     2.40150952339       -0.00127505732235   
0.0145739717409     2.40150952339       0.00127505732235    
0.0145739717409     2.51628303528       -0.00127505732235   
0.0145739717409     2.51628303528       0.00127505732235    
0.0145739717409     2.62825274467       -0.00127505732235   
0.0145739717409     2.62825274467       0.00127505732235    
0.0145739717409     2.73720526695       -0.00127505732235   
0.0145739717409     2.73720526695       0.00127505732235    
0.0145739717409     2.84295582771       -0.00127505732235   
0.0145739717409     2.84295582771       0.00127505732235    
0.0145739717409     2.94534778595       -0.00127505732235   
0.0145739717409     2.94534778595       0.00127505732235    
0.0145739717409     3.04425406456       -0.00127505732235   
0.0145739717409     3.04425406456       0.00127505732235    
0.0145739717409     3.139575243         -0.00127505732235   
0.0145739717409     3.139575243         0.00127505732235    
0.0145739717409     3.23123931885       -0.00127505732235   
0.0145739717409     3.23123931885       0.00127505732235    
0.0145739717409     3.31920027733       -0.00127505732235   
0.0145739717409     3.31920027733       0.00127505732235    
0.0145739717409     3.40343642235       -0.00127505732235   
0.0145739717409     3.40343642235       0.00127505732235    
0.0145739717409     3.483948946         -0.00127505732235   
0.0145739717409     3.483948946         0.00127505732235    
0.0145739717409     3.56075930595       -0.00127505732235   
0.0145739717409     3.56075930595       0.00127505732235    
0.0145739717409     3.63390779495       -0.00127505732235   
0.0145739717409     3.63390779495       0.00127505732235    
0.0145739717409     3.70345163345       -0.00127505732235   
0.0145739717409     3.70345163345       0.00127505732235    
0.0145739717409     3.76946210861       -0.00127505732235   
0.0145739717409     3.76946210861       0.00127505732235    
0.0145739717409     3.83202338219       -0.00127505732235   
0.0145739717409     3.83202338219       0.00127505732235    
0.0145739717409     3.89123010635       -0.00127505732235   
0.0145739717409     3.89123010635       0.00127505732235    
0.0145739717409     3.94718551636       -0.00127505732235   
0.0145739717409     3.94718551636       0.00127505732235    
0.0145739717409     4.0                 -0.00127505732235   
0.0145739717409     4.0                 0.00127505732235    
0.0145739717409     4.00090122223       -0.000901424908079  
0.0145739717409     4.00090122223       0.000901424908079   
0.0145739717409     4.00127506256       0.0                 
0.0341100133955     0.0                 -0.00298423948698   
0.0341100133955     0.0                 0.00298423948698    
0.0341100133955     0.10425234586       -0.00298423948698   
0.0341100133955     0.10425234586       0.00298423948698    
0.0341100133955     0.211780935526      -0.00298423948698   
0.0341100133955     0.211780935526      0.00298423948698    
0.0341100133955     0.322413772345      -0.00298423948698   
0.0341100133955     0.322413772345      0.00298423948698    
0.0341100133955     0.435950160027      -0.00298423948698   
0.0341100133955     0.435950160027      0.00298423948698    
0.0341100133955     0.55216127634       -0.00298423948698   
0.0341100133955     0.55216127634       0.00298423948698    
0.0341100133955     0.670791566372      -0.00298423948698   
0.0341100133955     0.670791566372      0.00298423948698    
0.0341100133955     0.791560173035      -0.00298423948698   
0.0341100133955     0.791560173035      0.00298423948698    
0.0341100133955     0.914163351059      -0.00298423948698   
0.0341100133955     0.914163351059      0.00298423948698    
0.0341100133955     1.03827738762       -0.00298423948698   
0.0341100133955     1.03827738762       0.00298423948698    
0.0341100133955     1.16356134415       -0.00298423948698   
0.0341100133955     1.16356134415       0.00298423948698    
0.0341100133955     1.28966128826       -0.00298423948698   
0.0341100133955     1.28966128826       0.00298423948698    
0.0341100133955     1.41621339321       -0.00298423948698   
0.0341100133955     1.41621339321       0.00298423948698    
0.0341100133955     1.54284906387       -0.00298423948698   
0.0341100133955     1.54284906387       0.00298423948698    
0.0341100133955     1.66919851303       -0.00298423948698   
0.0341100133955     1.66919851303       0.00298423948698    
0.0341100133955     1.79489517212       -0.00298423948698   
0.0341100133955     1.79489517212       0.00298423948698    
0.0341100133955     1.91958034039       -0.00298423948698   
0.0341100133955     1.91958034039       0.00298423948698    
0.0341100133955     2.04290652275       -0.00298423948698   
0.0341100133955     2.04290652275       0.00298423948698    
0.0341100133955     2.16454195976       -0.00298423948698   
0.0341100133955     2.16454195976       0.00298423948698    
[...]
CELL_DATA 3272
SCALARS panel_area float 1
LOOKUP_TABLE default
0.000762588261595   
0.000762588261595   
0.00102222776644    
0.00102222776644    
0.00135399330282    
0.00135399330282    
0.00176531398552    
0.00176531398552    
0.00225477070896    
0.00225477070896    
0.00280553115563    
0.00280553115563    
0.00337930854463    
0.00337930854463    
0.00391481795205    
0.00391481795205    
0.00433555746124    
0.00433555746124    
0.0045685340883     
0.0045685340883     
0.0045685340883     
0.0045685340883     
0.00433555591367    
0.00433555591367    
0.00391482104719    
0.00391482104719    
0.00337930622328    
0.00337930622328    
0.00280553115563    
0.00280553115563    
0.00225477186964    
0.00225477186964    
0.00176531437242    
0.00176531437242    
0.00135399233559    
0.00135399233559    
0.00102222897548    
0.00102222897548    
0.000762587246002   
0.000762587246002   
0.000762587246002   
0.000762587246002   
0.00102222897548    
0.00102222897548    
0.00135399233559    
0.00135399233559    
0.00176531437242    
0.00176531437242    
0.00225477186964    
0.00225477186964    
0.00280553115563    
0.00280553115563    
0.00337930622328    
0.00337930622328    
0.00391482104719    
0.00391482104719    
0.00433555591367    
0.00433555591367    
0.0045685340883     
0.0045685340883     
0.0045685340883     
0.0045685340883     
0.00433555746124    
0.00433555746124    
0.00391481795205    
0.00391481795205    
0.00337930854463    
0.00337930854463    
0.00280553115563    
0.00280553115563    
0.00225477070896    
0.00225477070896    
0.00176531398552    
0.00176531398552    
0.00135399330282    
0.00135399330282    
0.00102222776644    
0.00102222776644    
0.000762588261595   
0.000762588261595   
0.000786553430415   
0.000786553430415   
0.00105435239021    
0.00105435239021    
0.00139654402084    
0.00139654402084    
0.00182079090514    
0.00182079090514    
0.00232562934056    
0.00232562934056    
0.00289369803566    
0.00289369803566    
0.00348550700564    
0.00348550700564    
0.00403784538093    
0.00403784538093    
0.00447180708863    
0.00447180708863    
0.00471210526059    
0.00471210526059    
0.00471210526059    
0.00471210526059    
0.00447180549242    
0.00447180549242    
0.00403784857334    
0.00403784857334    
0.00348550461134    
0.00348550461134    
0.00289369803566    
0.00289369803566    
0.00232563053772    
0.00232563053772    
0.00182079130419    
0.00182079130419    
0.00139654302321    
0.00139654302321    
0.00105435363725    
0.00105435363725    
0.000786552382907   
0.000786552382907   
0.000786552382907   
0.000786552382907   
0.00105435363725    
0.00105435363725    
0.00139654302321    
0.00139654302321    
0.00182079130419    
0.00182079130419    
0.00232563053772    
0.00232563053772    
0.00289369803566    
0.00289369803566    
0.00348550461134    
0.00348550461134    
0.00403784857334    
0.00403784857334    
0.00447180549242    
0.00447180549242    
0.00471210526059    
0.00471210526059    
0.00471210526059    
0.00471210526059    
0.00447180708863    
0.00447180708863    
0.00403784538093    
0.00403784538093    
0.00348550700564    
0.00348550700564    
0.00289369803566    
0.00289369803566    
0.00232562934056    
0.00232562934056    
0.00182079090514    
0.00182079090514    
0.00139654402084    
0.00139654402084    
0.00105435239021    
0.00105435239021    
0.000786553430415   
0.000786553430415   
0.000809260472835   
0.000809260472835   
0.00108479053151    
0.00108479053151    
0.001436860906      
0.001436860906      
0.00187335539055    
0.00187335539055    
0.00239276802695    
0.00239276802695    
0.00297723631991    
0.00297723631991    
0.0035861302467     
0.0035861302467     
0.00415441410062    
0.00415441410062    
0.0046009038662     
0.0046009038662     
0.00484813921569    
0.00484813921569    
0.00484813921569    
0.00484813921569    
0.00460090222391    
0.00460090222391    
0.00415441738519    
0.00415441738519    
0.00358612778327    
0.00358612778327    
0.00297723631991    
0.00297723631991    
0.00239276925866    
0.00239276925866    
0.00187335580112    
0.00187335580112    
0.00143685987957    
0.00143685987957    
0.00108479181454    
0.00108479181454    
0.000809259395086   
0.000809259395086   
0.000809259395086   
0.000809259395086   
0.00108479181454    
0.00108479181454    
0.00143685987957    
0.00143685987957    
0.00187335580112    
0.00187335580112    
0.00239276925866    
0.00239276925866    
0.00297723631991    
0.00297723631991    
0.00358612778327    
0.00358612778327    
0.00415441738519    
0.00415441738519    
0.00460090222391    
0.00460090222391    
0.00484813921569    
0.00484813921569    
0.00484813921569    
0.00484813921569    
0.0046009038662     
0.0046009038662     
0.00415441410062    
0.00415441410062    
0.0035861302467     
0.0035861302467     
0.00297723631991    
0.00297723631991    
0.00239276802695    
0.00239276802695    
0.00187335539055    
0.00187335539055    
0.001436860906      
0.001436860906      
0.00108479053151    
0.00108479053151    
0.000809260472835   
0.000809260472835   
0.000830499455872   
0.000830499455872   
0.00111326078116    
0.00111326078116    
0.00147457121737    
0.00147457121737    
0.00192252146834    
0.00192252146834    
0.00245556605211    
0.00245556605211    
0.00305537367348    
0.00305537367348    
0.00368024797768    
0.00368024797768    
0.00426344640057    
0.00426344640057    
0.004721654258      
0.004721654258      
0.00497537828151    
0.00497537828151    
0.00497537828151    
0.00497537828151    
0.00472165257262    
0.00472165257262    
0.00426344977134    
0.00426344977134    
0.0036802454496     
0.0036802454496     
0.00305537367348    
0.00305537367348    
0.00245556731615    
0.00245556731615    
0.00192252188969    
0.00192252188969    
0.001474570164      
0.001474570164      
0.00111326209787    
0.00111326209787    
0.000830498349837   
0.000830498349837   
0.000830498349837   
0.000830498349837   
0.00111326209787    
0.00111326209787    
0.001474570164      
0.001474570164      
0.00192252188969    
0.00192252188969    
0.00245556731615    
0.00245556731615    
0.00305537367348    
0.00305537367348    
0.0036802454496     
0.0036802454496     
0.00426344977134    
0.00426344977134    
0.00472165257262    
0.00472165257262    
0.00497537828151    
0.00497537828151    
0.00497537828151    
0.00497537828151    
0.004721654258      
0.004721654258      
0.00426344640057    
0.00426344640057    
0.00368024797768    
0.00368024797768    
0.00305537367348    
0.00305537367348    
0.00245556605211    
0.00245556605211    
0.00192252146834    
0.00192252146834    
0.00147457121737    
0.00147457121737    
0.00111326078116    
0.00111326078116    
0.000830499455872   
0.000830499455872   
0.000850064643023   
0.000850064643023   
0.00113948735528    
0.00113948735528    
0.00150930966497    
0.00150930966497    
0.00196781287951    
0.00196781287951    
0.00251341510792    
0.00251341510792    
0.00312735320016    
0.00312735320016    
0.00376694850462    
0.00376694850462    
0.00436388611326    
0.00436388611326    
0.00483288858642    
0.00483288858642    
0.0050925899263     
0.0050925899263     
0.0050925899263     
0.0050925899263     
0.00483288686133    
0.00483288686133    
0.00436388956344    
0.00436388956344    
0.00376694591699    
0.00376694591699    
0.00312735320016    
0.00312735320016    
0.00251341640174    
0.00251341640174    
0.00196781331078    
0.00196781331078    
0.00150930858679    
0.00150930858679    
0.001139488703      
0.001139488703      
0.000850063510932   
0.000850063510932   
0.000850063510932   
0.000850063510932   
0.001139488703      
0.001139488703      
0.00150930858679    
0.00150930858679    
0.00196781331078    
0.00196781331078    
0.00251341640174    
0.00251341640174    
0.00312735320016    
0.00312735320016    
0.00376694591699    
0.00376694591699    
0.00436388956344    
0.00436388956344    
0.00483288686133    
0.00483288686133    
0.0050925899263     
0.0050925899263     
0.0050925899263     
0.0050925899263     
0.00483288858642    
0.00483288858642    
0.00436388611326    
0.00436388611326    
0.00376694850462    
0.00376694850462    
0.00312735320016    
0.00312735320016    
0.00251341510792    
0.00251341510792    
0.00196781287951    
0.00196781287951    
0.00150930966497    
0.00150930966497    
0.00113948735528    
0.00113948735528    
0.000850064643023   
0.000850064643023   
0.000867760489237   
0.000867760489237   
0.0011632081313     
0.0011632081313     
0.001540729054      
0.001540729054      
0.00200877695722    
0.00200877695722    
0.00256573701965    
0.00256573701965    
0.00319245549766    
0.00319245549766    
0.0038453652956     
0.0038453652956     
0.00445472938993    
0.00445472938993    
0.00493349511545    
0.00493349511545    
0.00519860267357    
0.00519860267357    
0.00519860267357    
0.00519860267357    
0.00493349335445    
0.00493349335445    
0.00445473291193    
0.00445473291193    
0.0038453626541     
0.0038453626541     
0.00319245549766    
0.00319245549766    
0.0025657383404     
0.0025657383404     
0.00200877739747    
0.00200877739747    
0.00154072795338    
0.00154072795338    
0.00116320950708    
0.00116320950708    
0.000867759333579   
0.000867759333579   
0.000867759333579   
0.000867759333579   
0.00116320950708    
0.00116320950708    
0.00154072795338    
0.00154072795338    
0.00200877739747    
0.00200877739747    
0.0025657383404     
0.0025657383404     
0.00319245549766    
0.00319245549766    
0.0038453626541     
0.0038453626541     
0.00445473291193    
0.00445473291193    
0.00493349335445    
0.00493349335445    
0.00519860267357    
0.00519860267357    
0.00519860267357    
0.00519860267357    
0.00493349511545    
0.00493349511545    
0.00445472938993    
0.00445472938993    
0.0038453652956     
0.0038453652956     
0.00319245549766    
0.00319245549766    
0.00256573701965    
0.00256573701965    
0.00200877695722    
0.00200877695722    
0.001540729054      
0.001540729054      
0.0011632081313     
0.0011632081313     
0.000867760489237   
0.000867760489237   
0.000883401913409   
0.000883401913409   
0.0011841750133     
0.0011841750133     
0.00156850076863    
0.00156850076863    
0.0020449852576     
0.0020449852576     
0.0026119845517     
0.0026119845517     
0.00324999966014    
0.00324999966014    
0.00391467818831    
0.00391467818831    
0.00453502609948    
0.00453502609948    
0.00502242160002    
0.00502242160002    
0.00529230773451    
0.00529230773451    
0.00529230773451    
0.00529230773451    
0.00502241980728    
0.00502241980728    
0.00453502968497    
0.00453502968497    
0.0039146754992     
0.0039146754992     
0.00324999966014    
0.00324999966014    
0.00261198589626    
0.00261198589626    
0.00204498570579    
0.00204498570579    
0.00156849964816    
0.00156849964816    
0.00118417641388    
0.00118417641388    
0.000883400736921   
0.000883400736921   
0.000883400736921   
0.000883400736921   
0.00118417641388    
0.00118417641388    
0.00156849964816    
0.00156849964816    
0.00204498570579    
0.00204498570579    
0.00261198589626    
0.00261198589626    
0.00324999966014    
0.00324999966014    
0.0039146754992     
0.0039146754992     
0.00453502968497    
0.00453502968497    
0.00502241980728    
0.00502241980728    
0.00529230773451    
0.00529230773451    
0.00529230773451    
0.00529230773451    
0.00502242160002    
0.00502242160002    
0.00453502609948    
0.00453502609948    
0.00391467818831    
0.00391467818831    
0.00324999966014    
0.00324999966014    
0.0026119845517     
0.0026119845517     
0.0020449852576     
0.0020449852576     
0.00156850076863    
0.00156850076863    
0.0011841750133     
0.0011841750133     
0.000883401913409   
0.000883401913409   
0.000896821492353   
0.000896821492353   
0.00120216357528    
0.00120216357528    
0.00159232754506    
0.00159232754506    
0.00207605021307    
0.00207605021307    
0.00265166267823    
0.00265166267823    
0.00329936974453    
0.00329936974453    
0.00397414526914    
0.00397414526914    
0.00460391675936    
0.00460391675936    
0.00509871618591    
0.00509871618591    
0.00537270210582    
0.00537270210582    
0.00537270210582    
0.00537270210582    
0.00509871436593    
0.00509871436593    
0.00460392039932    
0.00460392039932    
0.00397414253917    
0.00397414253917    
0.00329936974453    
0.00329936974453    
0.00265166404321    
0.00265166404321    
0.00207605066807    
0.00207605066807    
0.00159232640757    
0.00159232640757    
0.00120216499714    
0.00120216499714    
0.000896820297993   
0.000896820297993   
0.000896820297993   
0.000896820297993   
0.00120216499714    
0.00120216499714    
0.00159232640757    
0.00159232640757    
0.00207605066807    
0.00207605066807    
0.00265166404321    
0.00265166404321    
0.00329936974453    
0.00329936974453    
0.00397414253917    
0.00397414253917    
0.00460392039932    
0.00460392039932    
0.00509871436593    
0.00509871436593    
0.00537270210582    
0.00537270210582    
0.00537270210582    
0.00537270210582    
0.00509871618591    
0.00509871618591    
0.00460391675936    
0.00460391675936    
0.00397414526914    
0.00397414526914    
0.00329936974453    
0.00329936974453    
0.00265166267823    
0.00265166267823    
0.00207605021307    
0.00207605021307    
0.00159232754506    
0.00159232754506    
0.00120216357528    
0.00120216357528    
0.000896821492353   
0.000896821492353   
0.000907873166777   
0.000907873166777   
0.00121697802894    
0.00121697802894    
0.0016119500516     
0.0016119500516     
0.00210163371128    
0.00210163371128    
0.00268433954074    
0.00268433954074    
0.00334002840461    
0.00334002840461    
0.00402311929574    
0.00402311929574    
0.00466065156058    
0.00466065156058    
0.00516154847945    
0.00516154847945    
0.00543891077159    
0.00543891077159    
0.00543891077159    
0.00543891077159    
0.00516154663704    
0.00516154663704    
0.00466065524539    
0.00466065524539    
0.00402311653214    
0.00402311653214    
0.00334002840461    
0.00334002840461    
0.00268434092254    
0.00268434092254    
0.00210163417188    
0.00210163417188    
0.0016119489001     
0.0016119489001     
0.00121697946832    
0.00121697946832    
0.000907871957698   
0.000907871957698   
0.000907871957698   
0.000907871957698   
0.00121697946832    
0.00121697946832    
0.0016119489001     
0.0016119489001     
0.00210163417188    
0.00210163417188    
0.00268434092254    
0.00268434092254    
0.00334002840461    
0.00334002840461    
0.00402311653214    
0.00402311653214    
0.00466065524539    
0.00466065524539    
0.00516154663704    
0.00516154663704    
0.00543891077159    
0.00543891077159    
0.00543891077159    
0.00543891077159    
0.00516154847945    
0.00516154847945    
0.00466065156058    
0.00466065156058    
0.00402311929574    
0.00402311929574    
0.00334002840461    
0.00334002840461    
0.00268433954074    
0.00268433954074    
0.00210163371128    
0.00210163371128    
0.0016119500516     
0.0016119500516     
0.00121697802894    
0.00121697802894    
0.000907873166777   
0.000907873166777   
0.00091643093329    
0.00091643093329    
0.00122844947033    
0.00122844947033    
0.00162714456629    
0.00162714456629    
0.00212144406724    
0.00212144406724    
0.00270964258071    
0.00270964258071    
0.00337151207908    
0.00337151207908    
0.00406104190085    
0.00406104190085    
0.00470458365298    
0.00470458365298    
0.0052102021112     
0.0052102021112     
0.00549017886737    
0.00549017886737    
0.00549017886737    
0.00549017886737    
0.00521020025143    
0.00521020025143    
0.00470458737253    
0.00470458737253    
0.00406103911119    
0.00406103911119    
0.00337151207908    
0.00337151207908    
0.00270964397554    
0.00270964397554    
0.00212144453218    
0.00212144453218    
0.00162714340394    
0.00162714340394    
0.00122845092328    
0.00122845092328    
0.000916429712814   
0.000916429712814   
0.000916429712814   
0.000916429712814   
0.00122845092328    
0.00122845092328    
0.00162714340394    
0.00162714340394    
0.00212144453218    
0.00212144453218    
0.00270964397554    
0.00270964397554    
0.00337151207908    
0.00337151207908    
0.00406103911119    
0.00406103911119    
0.00470458737253    
0.00470458737253    
0.00521020025143    
0.00521020025143    
0.00549017886737    
0.00549017886737    
0.00549017886737    
0.00549017886737    
0.0052102021112     
0.0052102021112     
0.00470458365298    
0.00470458365298    
0.00406104190085    
0.00406104190085    
0.00337151207908    
0.00337151207908    
0.00270964258071    
0.00270964258071    
0.00212144406724    
0.00212144406724    
0.00162714456629    
0.00162714456629    
0.00122844947033    
0.00122844947033    
0.00091643093329    
0.00091643093329    
0.000922399744354   
0.000922399744354   
0.00123645049095    
0.00123645049095    
0.00163774233001    
0.00163774233001    
0.00213526125559    
0.00213526125559    
0.00272729076786    
0.00272729076786    
0.00339347109188    
0.00339347109188    
0.00408749189391    
0.00408749189391    
0.00473522510117    
0.00473522510117    
0.00524413670559    
0.00524413670559    
0.00552593697982    
0.00552593697982    
0.00552593697982    
0.00552593697982    
0.00524413483371    
0.00524413483371    
0.00473522884494    
0.00473522884494    
0.00408748908608    
0.00408748908608    
0.00339347109188    
0.00339347109188    
0.00272729217177    
0.00272729217177    
0.00213526172356    
0.00213526172356    
0.00163774116008    
0.00163774116008    
0.00123645195336    
0.00123645195336    
0.000922398515929   
0.000922398515929   
0.000922398515929   
0.000922398515929   
0.00123645195336    
0.00123645195336    
0.00163774116008    
0.00163774116008    
0.00213526172356    
0.00213526172356    
0.00272729217177    
0.00272729217177    
0.00339347109188    
0.00339347109188    
0.00408748908608    
0.00408748908608    
0.00473522884494    
0.00473522884494    
0.00524413483371    
0.00524413483371    
0.00552593697982    
0.00552593697982    
0.00552593697982    
0.00552593697982    
0.00524413670559    
0.00524413670559    
0.00473522510117    
0.00473522510117    
0.00408749189391    
0.00408749189391    
0.00339347109188    
0.00339347109188    
0.00272729076786    
0.00272729076786    
0.00213526125559    
0.00213526125559    
0.00163774233001    
0.00163774233001    
0.00123645049095    
0.00123645049095    
0.000922399744354   
0.000922399744354   
0.00092570722432    
0.00092570722432    
0.0012408840733     
0.0012408840733     
0.00164361483808    
0.00164361483808    
0.00214291773411    
0.00214291773411    
0.00273707010662    
0.00273707010662    
0.00340563917597    
0.00340563917597    
0.00410214855187    
0.00410214855187    
0.004752204358      
0.004752204358      
0.00526294078397    
0.00526294078397    
0.00554575151898    
0.00554575151898    
0.00554575151898    
0.00554575151898    
0.00526293890538    
0.00526293890538    
0.00475220811519    
0.00475220811519    
0.00410214573397    
0.00410214573397    
0.00340563917597    
0.00340563917597    
0.00273707151557    
0.00273707151557    
0.00214291820376    
0.00214291820376    
0.00164361366396    
0.00164361366396    
0.00124088554095    
0.00124088554095    
0.000925705991491   
0.000925705991491   
0.000925705991491   
0.000925705991491   
0.00124088554095    
0.00124088554095    
0.00164361366396    
0.00164361366396    
0.00214291820376    
0.00214291820376    
0.00273707151557    
0.00273707151557    
0.00340563917597    
0.00340563917597    
0.00410214573397    
0.00410214573397    
0.00475220811519    
0.00475220811519    
0.00526293890538    
0.00526293890538    
0.00554575151898    
0.00554575151898    
0.00554575151898    
0.00554575151898    
0.00526294078397    
0.00526294078397    
0.004752204358      
0.004752204358      
0.00410214855187    
0.00410214855187    
0.00340563917597    