# vtk DataFile Version 3.0
PyPan mesh file. Generated by PyPan, USU AeroLab (c) 2020.
ASCII
DATASET POLYDATA
POINTS 427 float
0.0                 0.0                 0.0                 
0.0                 0.217527970672      0.0                 
0.0                 0.448061168194      0.0                 
0.0                 0.689725637436      0.0                 
0.0                 0.940178275108      0.0                 
0.0                 1.19668114185       0.0                 
0.0                 1.45621216297       0.0                 
0.0                 1.71560299397       0.0                 
0.0                 1.97169232368       0.0                 
0.0                 2.22147774696       0.0                 
0.0                 2.46225214005       0.0                 
0.0                 2.69171094894       0.0                 
0.0                 2.90802383423       0.0                 
0.0                 3.10986590385       0.0                 
0.0                 3.29641318321       0.0                 
0.0                 3.4673075676        0.0                 
0.0                 3.62259936333       0.0                 
0.0                 3.76267743111       0.0                 
0.0                 3.88819599152       0.0                 
0.0                 4.0                 0.0                 
0.0341100133955     0.0                 -0.00298423948698   
0.0341100133955     0.0                 0.00298423948698    
0.0341100133955     0.217527970672      -0.00298423948698   
0.0341100133955     0.217527970672      0.00298423948698    
0.0341100133955     0.448061168194      -0.00298423948698   
0.0341100133955     0.448061168194      0.00298423948698    
0.0341100133955     0.689725637436      -0.00298423948698   
0.0341100133955     0.689725637436      0.00298423948698    
0.0341100133955     0.940178275108      -0.00298423948698   
0.0341100133955     0.940178275108      0.00298423948698    
0.0341100133955     1.19668114185       -0.00298423948698   
0.0341100133955     1.19668114185       0.00298423948698    
0.0341100133955     1.45621216297       -0.00298423948698   
0.0341100133955     1.45621216297       0.00298423948698    
0.0341100133955     1.71560299397       -0.00298423948698   
0.0341100133955     1.71560299397       0.00298423948698    
0.0341100133955     1.97169232368       -0.00298423948698   
0.0341100133955     1.97169232368       0.00298423948698    
0.0341100133955     2.22147774696       -0.00298423948698   
0.0341100133955     2.22147774696       0.00298423948698    
0.0341100133955     2.46225214005       -0.00298423948698   
0.0341100133955     2.46225214005       0.00298423948698    
0.0341100133955     2.69171094894       -0.00298423948698   
0.0341100133955     2.69171094894       0.00298423948698    
0.0341100133955     2.90802383423       -0.00298423948698   
0.0341100133955     2.90802383423       0.00298423948698    
0.0341100133955     3.10986590385       -0.00298423948698   
0.0341100133955     3.10986590385       0.00298423948698    
0.0341100133955     3.29641318321       -0.00298423948698   
0.0341100133955     3.29641318321       0.00298423948698    
0.0341100133955     3.4673075676        -0.00298423948698   
0.0341100133955     3.4673075676        0.00298423948698    
0.0341100133955     3.62259936333       -0.00298423948698   
0.0341100133955     3.62259936333       0.00298423948698    
0.0341100133955     3.76267743111       -0.00298423948698   
0.0341100133955     3.76267743111       0.00298423948698    
0.0341100133955     3.88819599152       -0.00298423948698   
0.0341100133955     3.88819599152       0.00298423948698    
0.0341100133955     4.0                 -0.00298423948698   
0.0341100133955     4.0                 0.00298423948698    
0.0341100133955     4.00210952759       -0.00210976228118   
0.0341100133955     4.00210952759       0.00210976228118    
0.0341100133955     4.00298404694       0.0                 
0.0937237665057     0.0                 -0.00819976720959   
0.0937237665057     0.0                 0.00819976720959    
0.0937237665057     0.217527970672      -0.00819976720959   
0.0937237665057     0.217527970672      0.00819976720959    
0.0937237665057     0.448061168194      -0.00819976720959   
0.0937237665057     0.448061168194      0.00819976720959    
0.0937237665057     0.689725637436      -0.00819976720959   
0.0937237665057     0.689725637436      0.00819976720959    
0.0937237665057     0.940178275108      -0.00819976720959   
0.0937237665057     0.940178275108      0.00819976720959    
0.0937237665057     1.19668114185       -0.00819976720959   
0.0937237665057     1.19668114185       0.00819976720959    
0.0937237665057     1.45621216297       -0.00819976720959   
0.0937237665057     1.45621216297       0.00819976720959    
0.0937237665057     1.71560299397       -0.00819976720959   
0.0937237665057     1.71560299397       0.00819976720959    
0.0937237665057     1.97169232368       -0.00819976720959   
0.0937237665057     1.97169232368       0.00819976720959    
0.0937237665057     2.22147774696       -0.00819976720959   
0.0937237665057     2.22147774696       0.00819976720959    
0.0937237665057     2.46225214005       -0.00819976720959   
0.0937237665057     2.46225214005       0.00819976720959    
0.0937237665057     2.69171094894       -0.00819976720959   
0.0937237665057     2.69171094894       0.00819976720959    
0.0937237665057     2.90802383423       -0.00819976720959   
0.0937237665057     2.90802383423       0.00819976720959    
0.0937237665057     3.10986590385       -0.00819976720959   
0.0937237665057     3.10986590385       0.00819976720959    
0.0937237665057     3.29641318321       -0.00819976720959   
0.0937237665057     3.29641318321       0.00819976720959    
0.0937237665057     3.4673075676        -0.00819976720959   
0.0937237665057     3.4673075676        0.00819976720959    
0.0937237665057     3.62259936333       -0.00819976720959   
0.0937237665057     3.62259936333       0.00819976720959    
0.0937237665057     3.76267743111       -0.00819976720959   
0.0937237665057     3.76267743111       0.00819976720959    
0.0937237665057     3.88819599152       -0.00819976720959   
0.0937237665057     3.88819599152       0.00819976720959    
0.0937237665057     4.0                 -0.00819976720959   
0.0937237665057     4.0                 0.00819976720959    
0.0937237665057     4.00579690933       -0.00579697405919   
0.0937237665057     4.00579690933       0.00579697405919    
0.0937237665057     4.00819969177       0.0                 
0.190432325006      0.0                 -0.0166606698185    
0.190432325006      0.0                 0.0166606698185     
0.190432325006      0.217527970672      -0.0166606698185    
0.190432325006      0.217527970672      0.0166606698185     
0.190432325006      0.448061168194      -0.0166606698185    
0.190432325006      0.448061168194      0.0166606698185     
0.190432325006      0.689725637436      -0.0166606698185    
0.190432325006      0.689725637436      0.0166606698185     
0.190432325006      0.940178275108      -0.0166606698185    
0.190432325006      0.940178275108      0.0166606698185     
0.190432325006      1.19668114185       -0.0166606698185    
0.190432325006      1.19668114185       0.0166606698185     
0.190432325006      1.45621216297       -0.0166606698185    
0.190432325006      1.45621216297       0.0166606698185     
0.190432325006      1.71560299397       -0.0166606698185    
0.190432325006      1.71560299397       0.0166606698185     
0.190432325006      1.97169232368       -0.0166606698185    
0.190432325006      1.97169232368       0.0166606698185     
0.190432325006      2.22147774696       -0.0166606698185    
0.190432325006      2.22147774696       0.0166606698185     
0.190432325006      2.46225214005       -0.0166606698185    
0.190432325006      2.46225214005       0.0166606698185     
0.190432325006      2.69171094894       -0.0166606698185    
0.190432325006      2.69171094894       0.0166606698185     
0.190432325006      2.90802383423       -0.0166606698185    
0.190432325006      2.90802383423       0.0166606698185     
0.190432325006      3.10986590385       -0.0166606698185    
0.190432325006      3.10986590385       0.0166606698185     
0.190432325006      3.29641318321       -0.0166606698185    
0.190432325006      3.29641318321       0.0166606698185     
0.190432325006      3.4673075676        -0.0166606698185    
0.190432325006      3.4673075676        0.0166606698185     
0.190432325006      3.62259936333       -0.0166606698185    
0.190432325006      3.62259936333       0.0166606698185     
0.190432325006      3.76267743111       -0.0166606698185    
0.190432325006      3.76267743111       0.0166606698185     
0.190432325006      3.88819599152       -0.0166606698185    
0.190432325006      3.88819599152       0.0166606698185     
0.190432325006      4.0                 -0.0166606698185    
0.190432325006      4.0                 0.0166606698185     
0.190432325006      4.01177835464       -0.0117785623297    
0.190432325006      4.01177835464       0.0117785623297     
0.190432325006      4.01666069031       -2.7241675598e-18   
0.329831987619      0.0                 -0.0288565587252    
0.329831987619      0.0                 0.0288565587252     
0.329831987619      0.217527970672      -0.0288565587252    
0.329831987619      0.217527970672      0.0288565587252     
0.329831987619      0.448061168194      -0.0288565587252    
0.329831987619      0.448061168194      0.0288565587252     
0.329831987619      0.689725637436      -0.0288565587252    
0.329831987619      0.689725637436      0.0288565587252     
0.329831987619      0.940178275108      -0.0288565587252    
0.329831987619      0.940178275108      0.0288565587252     
0.329831987619      1.19668114185       -0.0288565587252    
0.329831987619      1.19668114185       0.0288565587252     
[...]
CELL_DATA 832
SCALARS panel_area float 1
LOOKUP_TABLE default
0.00372411196505    
0.00372411196505    
0.00650859775613    
0.00650859775613    
0.0105585844281     
0.0105585844281     
0.0152195763228     
0.0152195763228     
0.0185788525857     
0.0185788525857     
0.0185788493566     
0.0185788493566     
0.0152195779373     
0.0152195779373     
0.0105585868499     
0.0105585868499     
0.00650859654522    
0.00650859654522    
0.00372411236868    
0.00372411236868    
0.00372411236868    
0.00372411236868    
0.00650859654522    
0.00650859654522    
0.0105585868499     
0.0105585868499     
0.0152195779373     
0.0152195779373     
0.0185788493566     
0.0185788493566     
0.0185788525857     
0.0185788525857     
0.0152195763228     
0.0152195763228     
0.0105585844281     
0.0105585844281     
0.00650859775613    
0.00650859775613    
0.00372411196505    
0.00372411196505    
0.00394676342809    
0.00394676342809    
0.00689772376156    
0.00689772376156    
0.011189844791      
0.011189844791      
0.0161295008811     
0.0161295008811     
0.0196896163728     
0.0196896163728     
0.0196896129506     
0.0196896129506     
0.0161295025922     
0.0161295025922     
0.0111898473576     
0.0111898473576     
0.00689772247825    
0.00689772247825    
0.00394676385585    
0.00394676385585    
0.00394676385585    
0.00394676385585    
0.00689772247825    
0.00689772247825    
0.0111898473576     
0.0111898473576     
0.0161295025922     
0.0161295025922     
0.0196896129506     
0.0196896129506     
0.0196896163728     
0.0196896163728     
0.0161295008811     
0.0161295008811     
0.011189844791      
0.011189844791      
0.00689772376156    
0.00689772376156    
0.00394676342809    
0.00394676342809    
0.00413733249408    
0.00413733249408    
0.00723077964359    
0.00723077964359    
0.0117301452953     
0.0117301452953     
0.0169083121714     
0.0169083121714     
0.0206403274732     
0.0206403274732     
0.0206403238859     
0.0206403238859     
0.0169083139651     
0.0169083139651     
0.0117301479858     
0.0117301479858     
0.00723077829832    
0.00723077829832    
0.0041373329425     
0.0041373329425     
0.0041373329425     
0.0041373329425     
0.00723077829832    
0.00723077829832    
0.0117301479858     
0.0117301479858     
0.0169083139651     
0.0169083139651     
0.0206403238859     
0.0206403238859     
0.0206403274732     
0.0206403274732     
0.0169083121714     
0.0169083121714     
0.0117301452953     
0.0117301452953     
0.00723077964359    
0.00723077964359    
0.00413733249408    
0.00413733249408    
0.00428778727514    
0.00428778727514    
0.00749372814235    
0.00749372814235    
0.0121567139708     
0.0121567139708     
0.0175231857426     
0.0175231857426     
0.0213909163987     
0.0213909163987     
0.0213909126809     
0.0213909126809     
0.0175231876015     
0.0175231876015     
0.0121567167592     
0.0121567167592     
0.00749372674816    
0.00749372674816    
0.00428778773987    
0.00428778773987    
0.00428778773987    
0.00428778773987    
0.00749372674816    
0.00749372674816    
0.0121567167592     
0.0121567167592     
0.0175231876015     
0.0175231876015     
0.0213909126809     
0.0213909126809     
0.0213909163987     
0.0213909163987     
0.0175231857426     
0.0175231857426     
0.0121567139708     
0.0121567139708     
0.00749372814235    
0.00749372814235    
0.00428778727514    
0.00428778727514    
0.00439136811769    
0.00439136811769    
0.00767475547067    
0.00767475547067    
0.0124503858801     
0.0124503858801     
0.0179464964684     
0.0179464964684     
0.0219076605843     
0.0219076605843     
0.0219076567767     
0.0219076567767     
0.0179464983722     
0.0179464983722     
0.0124503887358     
0.0124503887358     
0.0076747540428     
0.0076747540428     
0.00439136859365    
0.00439136859365    
0.00439136859365    
0.00439136859365    
0.0076747540428     
0.0076747540428     
0.0124503887358     
0.0124503887358     
0.0179464983722     
0.0179464983722     
0.0219076567767     
0.0219076567767     
0.0219076605843     
0.0219076605843     
0.0179464964684     
0.0179464964684     
0.0124503858801     
0.0124503858801     
0.00767475547067    
0.00767475547067    
0.00439136811769    
0.00439136811769    
0.00444321058144    
0.00444321058144    
0.007765360089      
0.007765360089      
0.0125973693853     
0.0125973693853     
0.0181583645167     
0.0181583645167     
0.0221662923066     
0.0221662923066     
0.022166288454      
0.022166288454      
0.018158366443      
0.018158366443      
0.0125973722748     
0.0125973722748     
0.00776535864428    
0.00776535864428    
0.00444321106301    
0.00444321106301    
0.00444321106301    
0.00444321106301    
0.00776535864428    
0.00776535864428    
0.0125973722748     
0.0125973722748     
0.018158366443      
0.018158366443      
0.022166288454      
0.022166288454      
0.0221662923066     
0.0221662923066     
0.0181583645167     
0.0181583645167     
0.0125973693853     
0.0125973693853     
0.007765360089      
0.007765360089      
0.00444321058144    
0.00444321058144    
0.00444081050517    
0.00444081050517    
0.0077611654968     
0.0077611654968     
0.0125905647006     
0.0125905647006     
0.0181485559652     
0.0181485559652     
0.0221543188043     
0.0221543188043     
0.0221543149538     
0.0221543149538     
0.0181485578905     
0.0181485578905     
0.0125905675884     
0.0125905675884     
0.00776116405285    
0.00776116405285    
0.00444081098648    
0.00444081098648    
0.00444081098648    
0.00444081098648    
0.00776116405285    
0.00776116405285    
0.0125905675884     
0.0125905675884     
0.0181485578905     
0.0181485578905     
0.0221543149538     
0.0221543149538     
0.0221543188043     
0.0221543188043     
0.0181485559652     
0.0181485559652     
0.0125905647006     
0.0125905647006     
0.0077611654968     
0.0077611654968     
0.00444081050517    
0.00444081050517    
0.00438428830088    
0.00438428830088    
0.00766238213704    
0.00766238213704    
0.0124303132173     
0.0124303132173     
0.0179175629096     
0.0179175629096     
0.0218723407888     
0.0218723407888     
0.0218723369873     
0.0218723369873     
0.0179175648104     
0.0179175648104     
0.0124303160685     
0.0124303160685     
0.00766238071147    
0.00766238071147    
0.00438428877607    
0.00438428877607    
0.00438428877607    
0.00438428877607    
0.00766238071147    
0.00766238071147    
0.0124303160685     
0.0124303160685     
0.0179175648104     
0.0179175648104     
0.0218723369873     
0.0218723369873     
0.0218723407888     
0.0218723407888     
0.0179175629096     
0.0179175629096     
0.0124303132173     
0.0124303132173     
0.00766238213704    
0.00766238213704    
0.00438428830088    
0.00438428830088    
0.00427636446317    
0.00427636446317    
0.00747376459425    
0.00747376459425    
0.012124328069      
0.012124328069      
0.0174765033764     
0.0174765033764     
0.0213339302657     
0.0213339302657     
0.0213339265578     
0.0213339265578     
0.0174765052304     
0.0174765052304     
0.0121243308499     
0.0121243308499     
0.00747376320378    
0.00747376320378    
0.00427636492667    
0.00427636492667    
0.00427636492667    
0.00427636492667    
0.00747376320378    
0.00747376320378    
0.0121243308499     
0.0121243308499     
0.0174765052304     
0.0174765052304     
0.0213339265578     
0.0213339265578     
0.0213339302657     
0.0213339302657     
0.0174765033764     
0.0174765033764     
0.012124328069      
0.012124328069      
0.00747376459425    
0.00747376459425    
0.00427636446317    
0.00427636446317    
0.00412209425475    
0.00412209425475    
0.00720414790661    
0.00720414790661    
0.011686941912      
0.011686941912      
0.0168460370442     
0.0168460370442     
0.0205643069333     
0.0205643069333     
0.0205643033592     
0.0205643033592     
0.0168460388312     
0.0168460388312     
0.0116869445926     
0.0116869445926     
0.0072041465663     
0.0072041465663     
0.00412209470152    
0.00412209470152    
0.00412209470152    
0.00412209470152    
0.0072041465663     
0.0072041465663     
0.0116869445926     
0.0116869445926     
0.0168460388312     
0.0168460388312     
0.0205643033592     
0.0205643033592     
0.0205643069333     
0.0205643069333     
0.0168460370442     
0.0168460370442     
0.011686941912      
0.011686941912      
0.00720414790661    
0.00720414790661    
0.00412209425475    
0.00412209425475    
0.00392836973134    
0.00392836973134    
0.00686557725938    
0.00686557725938    
0.01113769507       
0.01113769507       
0.016054330136      
0.016054330136      
0.0195978538845     
0.0195978538845     
0.0195978504784     
0.0195978504784     
0.0160543318391     
0.0160543318391     
0.0111376976246     
0.0111376976246     
0.00686557598206    
0.00686557598206    
0.00392837015711    
0.00392837015711    
0.00392837015711    
0.00392837015711    
0.00686557598206    
0.00686557598206    
0.0111376976246     
0.0111376976246     
0.0160543318391     
0.0160543318391     
0.0195978504784     
0.0195978504784     
0.0195978538845     
0.0195978538845     
0.016054330136      
0.016054330136      
0.01113769507       
0.01113769507       
0.00686557725938    
0.00686557725938    
0.00392836973134    
0.00392836973134    
0.00370330951828    
0.00370330951828    
0.00647224150272    
0.00647224150272    
0.0104996054306     
0.0104996054306     
0.0151345615785     
0.0151345615785     
0.0184750733236     
0.0184750733236     
0.0184750701125     
0.0184750701125     
0.0151345631841     
0.0151345631841     
0.0104996078388     
0.0104996078388     
0.00647224029858    
0.00647224029858    
0.00370330991966    
0.00370330991966    
0.00370330991966    
0.00370330991966    
0.00647224029858    
0.00647224029858    
0.0104996078388     
0.0104996078388     
0.0151345631841     
0.0151345631841     
0.0184750701125     
0.0184750701125     
0.0184750733236     
0.0184750733236     
0.0151345615785     
0.0151345615785     
0.0104996054306     
0.0104996054306     
0.00647224150272    
0.00647224150272    
0.00370330951828    
0.00370330951828    
0.00345556695179    
0.00345556695179    
0.00603926399627    
0.00603926399627    
0.00979720689117    
0.00979720689117    
0.0141220955371     
0.0141220955371     
0.0172391350206     
0.0172391350206     
0.0172391320244     
0.0172391320244     
0.0141220970352     
0.0141220970352     
0.00979720913835    
0.00979720913835    
0.00603926287268    
0.00603926287268    
0.00345556732632    
0.00345556732632    
0.00345556732632    
0.00345556732632    
0.00603926287268    
0.00603926287268    
0.00979720913835    
0.00979720913835    
0.0141220970352     
0.0141220970352     
0.0172391320244     
0.0172391320244     
0.0172391350206     
0.0172391350206     
0.0141220955371     
0.0141220955371     
0.00979720689117    
0.00979720689117    
0.00603926399627    
0.00603926399627    
0.00345556695179    
0.00345556695179    
0.00319371781458    
0.00319371781458    
0.00558163256013    
0.00558163256013    
0.00905481346997    
0.00905481346997    
0.0130519792339     
0.0130519792339     
0.015932821847      
0.015932821847      
0.0159328190778     
0.0159328190778     
0.0130519806185     
0.0130519806185     
0.00905481554686    
0.00905481554686    
0.00558163152168    
0.00558163152168    
0.00319371816073    
0.00319371816073    
0.00319371816073    
0.00319371816073    
0.00558163152168    
0.00558163152168    
0.00905481554686    
0.00905481554686    
0.0130519806185     
0.0130519806185     
0.0159328190778     
0.0159328190778     
0.015932821847      
0.015932821847      
0.0130519792339     
0.0130519792339     
0.00905481346997    
0.00905481346997    
0.00558163256013    
0.00558163256013    
0.00319371781458    
0.00319371781458    
0.0029257378703     
0.0029257378703     
0.00511328636636    
0.00511328636636    
0.0082950380139     
0.0082950380139     
0.0119568077532     
0.0119568077532     
0.0145959232985     
0.0145959232985     
0.0145959207617     
0.0145959207617     
0.0119568090216     
0.0119568090216     
0.00829503991653    
0.00829503991653    
0.00511328541505    
0.00511328541505    
0.00292573818741    
0.00292573818741    
0.00292573818741    
0.00292573818741    
0.00511328541505    
0.00511328541505    
0.00829503991653    
0.00829503991653    
0.0119568090216     
0.0119568090216     
0.0145959207617     
0.0145959207617     
0.0145959232985     
0.0145959232985     
0.0119568077532     
0.0119568077532     
0.0082950380139     
0.0082950380139     
0.00511328636636    
0.00511328636636    
0.0029257378703     
0.0029257378703     
0.00265861917788    
0.00265861917788    
0.00464644537489    
0.00464644537489    
0.00753770437498    
0.00753770437498    
0.0108651560079     
0.0108651560079     
0.0132633213639     
0.0132633213639     
0.0132633190586     
0.0132633190586     
0.0108651571605     
0.0108651571605     
0.0075377061039     
0.0075377061039     
0.00464644451043    
0.00464644451043    
0.00265861946604    
0.00265861946604    
0.00265861946604    
0.00265861946604    
0.00464644451043    
0.00464644451043    
0.0075377061039     
0.0075377061039     
0.0108651571605     
0.0108651571605     
0.0132633190586     
0.0132633190586     
0.0132633213639     
0.0132633213639     
0.0108651560079     
0.0108651560079     
0.00753770437498    
0.00753770437498    
0.00464644537489    
0.00464644537489    
0.00265861917788    
0.00265861917788    
0.00239815783987    
0.00239815783987    
0.00419123938323    
0.00419123938323    
0.00679924563544    
0.00679924563544    
0.00980071131604    
0.00980071131604    
0.011963931644      
0.011963931644      
0.0119639295646     
0.0119639295646     
0.00980071235573    
0.00980071235573    
0.00679924719498    
0.00679924719498    
0.00419123860346    
0.00419123860346    
0.0023981580998     
0.0023981580998     
0.0023981580998     
0.0023981580998     
0.00419123860346    
0.00419123860346    
0.00679924719498    
0.00679924719498    
0.00980071235573    
0.00980071235573    
0.0119639295646     
0.0119639295646     
0.011963931644      
0.011963931644      
0.00980071131604    
0.00980071131604    
0.00679924563544    
0.00679924563544    
0.00419123938323    
0.00419123938323    
0.00239815783987    
0.00239815783987    
0.00214889685778    
0.00214889685778    
0.00375560815518    
0.00375560815518    
0.00609254209142    
0.00609254209142    
0.00878203986448    
0.00878203986448    
0.0107204182681     
0.0107204182681     
0.0107204164049     
0.0107204164049     
0.00878204079611    
0.00878204079611    
0.00609254348886    
0.00609254348886    
0.00375560745646    
0.00375560745646    
0.00214889709069    
0.00214889709069    
0.00214889709069    
0.00214889709069    
0.00375560745646    
0.00375560745646    
0.00609254348886    
0.00609254348886    
0.00878204079611    
0.00878204079611    
0.0107204164049     
0.0107204164049     
0.0107204182681     
0.0107204182681     
0.00878203986448    
0.00878203986448    
0.00609254209142    
0.00609254209142    
0.00375560815518    
0.00375560815518    
0.00214889685778    
0.00214889685778    
0.0019141016415     
0.0019141016415     
0.00334525861891    
0.00334525861891    
0.00542685181741    
0.00542685181741    
0.00782248662119    
0.00782248662119    
0.0095490717157     
0.0095490717157     
0.00954907005603    
0.00954907005603    
0.00782248745102    
0.00782248745102    
0.00542685306216    
0.00542685306216    
0.00334525799654    
0.00334525799654    
0.00191410184896    
0.00191410184896    
0.00191410184896    
0.00191410184896    
0.00334525799654    
0.00334525799654    
0.00542685306216    
0.00542685306216    
0.00782248745102    
0.00782248745102    
0.00954907005603    
0.00954907005603    
0.0095490717157     
0.0095490717157     
0.00782248662119    
0.00782248662119    
0.00542685181741    
0.00542685181741    
0.00334525861891    
0.00334525861891    
0.0019141016415     
0.0019141016415     
3.90737543119e-05   
6.82888774826e-05   
0.000187652700697   
0.000304419923989   
0.000618531205945   
0.000891576273045   
0.00154423895149    
0.00188508456743    
0.00285765313726    
0.00285765264003    
0.00188508423943    
0.00154423911549    
0.000891576367732   
0.000618531347975   
0.000304419993891   
0.000187652665746   
6.82888647635e-05   
3.90737585516e-05   
3.90737585516e-05   
6.82888647635e-05   
0.000187652665746   
0.000304419993891   
0.000618531347975   
0.000891576367732   
0.00154423911549    
0.00188508423943    
0.00285765264003    
0.00285765313726    
0.00188508456743    
0.00154423895149    
0.000891576273045   
0.000618531205945   
0.000304419923989   
0.000187652700697   
6.82888774826e-05   
3.90737543119e-05   
3.90777260756e-05   
6.82958370405e-05   
0.000187654407003   
0.000304422660124   
0.000618544721739   
0.000891595813978   
0.00154425741574    
0.00188510688732    
0.00285767183189    
0.00285767133466    
0.00188510655931    
0.00154425757974    
0.000891595908667   
0.000618544863772   
0.000304422730027   
0.000187654372052   
6.829582432e-05     
3.90777303157e-05   
3.90777303157e-05   
6.829582432e-05     
0.000187654372052   
0.000304422730027   
0.000618544863772   
0.000891595908667   
0.00154425757974    
0.00188510655931    
0.00285767133466    
0.00285767183189    
0.00188510688732    
0.00154425741574    
0.000891595813978   
0.000618544721739   
0.000304422660124   
0.000187654407003   
6.82958370405e-05   
3.90777260756e-05   
VECTORS panel_centroids float
0.988629996777       0.145018647114       -0.000994746495659  
0.977259993553       0.0725093235572      -0.00198949299132   
0.946018735568       0.145018647114       -0.00472274872785   
0.926147480806       0.0725093235572      -0.00646125796872   
0.874040047328       0.145018647114       -0.0110200680792    
0.841803868612       0.0725093235572      -0.0138403689489    
0.763101140658       0.145018647114       -0.0207259661208    
0.71663459142        0.0725093235572      -0.024791262423     
0.613445361455       0.145018647114       -0.0338191501796    
0.556722680728       0.0725093235572      -0.038781741634     
0.443277329206       0.0725093235572      -0.038781741634     
0.386554658413       0.145018647114       -0.0338191501796    
0.283365433415       0.0725093235572      -0.024791262423     
0.23689887921        0.145018647114       -0.0207259661208    
0.158196138839       0.0725093235572      -0.0138403689489    
0.125959952672       0.145018647114       -0.0110200680792    
0.073852515469       0.0725093235572      -0.00646125796872   
0.0539812644323      0.145018647114       -0.00472274872785   
0.0227400089304      0.0725093235572      -0.00198949299132   
0.0113700044652      0.145018647114       -0.000994746495659  
0.0113700044652      0.145018647114       0.000994746495659   
0.0227400089304      0.0725093235572      0.00198949299132    
0.0539812644323      0.145018647114       0.00472274872785    
0.073852515469       0.0725093235572      0.00646125796872    
0.125959952672       0.145018647114       0.0110200680792     
0.158196138839       0.0725093235572      0.0138403689489     
0.23689887921        0.145018647114       0.0207259661208     
0.283365433415       0.0725093235572      0.024791262423      
0.386554658413       0.145018647114       0.0338191501796     
0.443277329206       0.0725093235572      0.038781741634      
0.556722680728       0.0725093235572      0.038781741634      
0.613445361455       0.145018647114       0.0338191501796     
0.71663459142        0.0725093235572      0.024791262423      
0.763101140658       0.145018647114       0.0207259661208     
0.841803868612       0.0725093235572      0.0138403689489     
0.874040047328       0.145018647114       0.0110200680792     
0.926147480806       0.0725093235572      0.00646125796872    
0.946018735568       0.145018647114       0.00472274872785    