# vtk DataFile Version 3.0
PyPan mesh file. Generated by PyPan, USU AeroLab (c) 2020.
ASCII
DATASET POLYDATA
POINTS 3321 float
0.2532              0.0                 -0.0099496          
0.25862             -0.03784            -0.0095098          
0.26405             -0.07568            -0.0090701          
0.26947             -0.11352            -0.0086303          
0.2749              -0.15136            -0.0081906          
0.28033             -0.1892             -0.007751           
0.28575             -0.22704            -0.0073114          
0.29118             -0.26488            -0.0068718          
0.29661             -0.30272            -0.0064322          
0.30203             -0.34056            -0.0059927          
0.30746             -0.3784             -0.0055532          
0.31289             -0.41624            -0.0051138          
0.31832             -0.45408            -0.0046744          
0.32375             -0.49192            -0.004235           
0.32918             -0.52976            -0.0037956          
0.33461             -0.5676             -0.0033563          
0.34003             -0.60544            -0.0029171          
0.34546             -0.64328            -0.0024778          
0.35089             -0.68112            -0.0020386          
0.35632             -0.71896            -0.0015994          
0.36175             -0.7568             -0.0011603          
0.25232             0.0                 -0.0098808          
0.25777             -0.03784            -0.0094439          
0.26321             -0.075679           -0.0090071          
0.26866             -0.11352            -0.0085703          
0.27411             -0.15136            -0.0081335          
0.27956             -0.1892             -0.0076967          
0.28501             -0.22704            -0.00726            
0.29046             -0.26488            -0.0068233          
0.29591             -0.30272            -0.0063866          
0.30136             -0.34056            -0.00595            
0.30681             -0.3784             -0.0055134          
0.31226             -0.41624            -0.0050768          
0.31771             -0.45408            -0.0046402          
0.32316             -0.49192            -0.0042037          
0.32861             -0.52976            -0.0037672          
0.33406             -0.5676             -0.0033307          
0.33951             -0.60543            -0.0028943          
0.34496             -0.64327            -0.0024579          
0.35041             -0.68111            -0.0020215          
0.35587             -0.71895            -0.0015852          
0.36132             -0.75679            -0.0011489          
0.25128             0.0                 -0.009803           
0.25675             -0.03784            -0.0093694          
0.26223             -0.075679           -0.0089358          
0.2677              -0.11352            -0.0085023          
0.27318             -0.15136            -0.0080688          
0.27865             -0.1892             -0.0076354          
0.28412             -0.22704            -0.0072019          
0.2896              -0.26488            -0.0067685          
0.29507             -0.30272            -0.0063351          
0.30055             -0.34056            -0.0059018          
0.30603             -0.3784             -0.0054685          
0.3115              -0.41623            -0.0050352          
0.31698             -0.45407            -0.0046019          
0.32245             -0.49191            -0.0041687          
0.32793             -0.52975            -0.0037355          
0.33341             -0.56759            -0.0033023          
0.33888             -0.60543            -0.0028692          
0.34436             -0.64327            -0.002436           
0.34984             -0.68111            -0.002003           
0.35531             -0.71895            -0.0015699          
0.36079             -0.75679            -0.0011369          
0.25004             0.0                 -0.009715           
0.25555             -0.037839           -0.0092852          
0.26105             -0.075678           -0.0088555          
0.26656             -0.11352            -0.0084257          
0.27206             -0.15136            -0.007996           
0.27756             -0.1892             -0.0075663          
0.28307             -0.22703            -0.0071367          
0.28857             -0.26487            -0.0067071          
0.29408             -0.30271            -0.0062775          
0.29958             -0.34055            -0.005848           
0.30509             -0.37839            -0.0054184          
0.3106              -0.41623            -0.004989           
0.3161              -0.45407            -0.0045595          
0.32161             -0.49191            -0.0041301          
0.32712             -0.52975            -0.0037007          
0.33262             -0.56759            -0.0032713          
0.33813             -0.60543            -0.002842           
0.34364             -0.64327            -0.0024127          
0.34915             -0.6811             -0.0019834          
0.35465             -0.71894            -0.0015542          
0.36016             -0.75678            -0.001125           
0.24857             0.0                 -0.0096167          
0.2541              -0.037839           -0.0091912          
0.25964             -0.075677           -0.0087658          
0.26518             -0.11352            -0.0083404          
0.27072             -0.15135            -0.0079151          
0.27626             -0.18919            -0.0074898          
0.2818              -0.22703            -0.0070645          
0.28735             -0.26487            -0.0066393          
0.29289             -0.30271            -0.006214           
0.29843             -0.34055            -0.0057889          
0.30397             -0.37839            -0.0053637          
0.30951             -0.41622            -0.0049386          
0.31505             -0.45406            -0.0045136          
0.3206              -0.4919             -0.0040885          
0.32614             -0.52974            -0.0036635          
0.33168             -0.56758            -0.0032386          
0.33723             -0.60542            -0.0028136          
0.34277             -0.64326            -0.0023888          
0.34832             -0.68109            -0.0019639          
0.35386             -0.71893            -0.0015391          
0.35941             -0.75677            -0.0011143          
0.24679             0.0                 -0.0095086          
0.25237             -0.037838           -0.0090882          
0.25796             -0.075675           -0.0086677          
0.26354             -0.11351            -0.0082473          
0.26912             -0.15135            -0.007827           
0.2747              -0.18919            -0.0074066          
0.28029             -0.22703            -0.0069864          
0.28587             -0.26486            -0.0065661          
0.29146             -0.3027             -0.0061459          
0.29704             -0.34054            -0.0057258          
0.30263             -0.37838            -0.0053056          
0.30821             -0.41621            -0.0048856          
0.3138              -0.45405            -0.0044655          
0.31938             -0.49189            -0.0040455          
0.32497             -0.52973            -0.0036255          
0.33056             -0.56757            -0.0032056          
0.33614             -0.6054             -0.0027857          
0.34173             -0.64324            -0.0023659          
0.34732             -0.68108            -0.0019461          
0.35291             -0.71892            -0.0015263          
0.3585              -0.75675            -0.0011066          
0.24466             0.0                 -0.0093931          
0.2503              -0.037836           -0.0089783          
0.25593             -0.075673           -0.0085635          
0.26156             -0.11351            -0.0081487          
0.2672              -0.15135            -0.007734           
0.27283             -0.18918            -0.0073194          
0.27847             -0.22702            -0.0069047          
0.2841              -0.26486            -0.0064902          
0.28974             -0.30269            -0.0060756          
0.29538             -0.34053            -0.0056611          
0.30101             -0.37836            -0.0052467          
0.30665             -0.4162             -0.0048323          
0.31229             -0.45404            -0.0044179          
0.31793             -0.49187            -0.0040036          
0.32357             -0.52971            -0.0035894          
0.3292              -0.56755            -0.0031751          
0.33484             -0.60538            -0.0027609          
0.34048             -0.64322            -0.0023468          
0.34612             -0.68106            -0.0019327          
0.35176             -0.71889            -0.0015186          
0.35741             -0.75673            -0.0011046          
0.24211             0.0                 -0.0092748          
0.2478              -0.037835           -0.0088663          
0.2535              -0.075669           -0.0084578          
0.25919             -0.1135             -0.0080493          
0.26489             -0.15134            -0.0076409          
0.27059             -0.18917            -0.0072325          
0.27628             -0.22701            -0.0068242          
0.28198             -0.26484            -0.006416           
0.28768             -0.30268            -0.0060077          
0.29338             -0.34051            -0.0055996          
0.29908             -0.37835            -0.0051915          
0.30478             -0.41618            -0.0047834          
0.31048             -0.45402            -0.0043754          
0.31618             -0.49185            -0.0039674          
[...]
CELL_DATA 6479
SCALARS panel_area float 1
LOOKUP_TABLE default
7.12010337805e-06   
7.11924780019e-06   
7.02415697471e-06   
6.9289271068e-06    
6.92816048454e-06   
6.83300088345e-06   
6.73777943533e-06   
6.64269647133e-06   
6.64181806636e-06   
6.54667352704e-06   
6.45145502229e-06   
6.45067854681e-06   
6.26110771014e-06   
6.26027645912e-06   
6.16514306438e-06   
6.0699556481e-06    
6.06915599741e-06   
5.97397292995e-06   
5.8788017272e-06    
5.78362812486e-06   
5.68840473263e-06   
5.68767035247e-06   
5.59246048741e-06   
5.49732256346e-06   
5.40212829817e-06   
5.30694883113e-06   
5.30629324184e-06   
5.11666234654e-06   
5.11598852979e-06   
4.92636494548e-06   
4.92568083372e-06   
4.83056785373e-06   
4.73547334491e-06   
4.7349095174e-06    
4.54527930749e-06   
4.54476503981e-06   
4.35515853235e-06   
4.35466219413e-06   
4.2596449812e-06    
4.1646527941e-06    
8.25697848672e-06   
8.0672005249e-06    
7.97174323386e-06   
7.96935796326e-06   
7.77957829939e-06   
7.68548182479e-06   
7.59012712003e-06   
7.49469536999e-06   
7.39934593213e-06   
7.30400902146e-06   
7.20866634509e-06   
7.01889066978e-06   
7.01795037132e-06   
6.82817195704e-06   
6.73285718703e-06   
6.63749013139e-06   
6.54218589059e-06   
6.35241988489e-06   
6.35155601182e-06   
6.16179157442e-06   
6.16096138969e-06   
5.97126219449e-06   
5.87601270193e-06   
5.78077712933e-06   
5.68549176331e-06   
5.59027998786e-06   
5.4950233398e-06    
5.39983799931e-06   
5.30466054048e-06   
5.20950358811e-06   
5.10087145518e-06   
4.91122595005e-06   
4.81601390123e-06   
4.72095928586e-06   
4.62582795455e-06   
4.53081385457e-06   
4.43569044929e-06   
4.2461655817e-06    
4.24571369171e-06   
4.05619745855e-06   
9.67840485946e-06   
9.67724976363e-06   
9.48604361965e-06   
9.29705095339e-06   
9.29634639788e-06   
9.10697326527e-06   
9.01095307471e-06   
8.82110158519e-06   
8.7255677173e-06    
8.63005108163e-06   
8.44020567884e-06   
8.43916581792e-06   
8.249263293e-06     
8.1538447447e-06    
7.9639488952e-06    
7.96296839818e-06   
7.77308279739e-06   
7.67770331887e-06   
7.4878852452e-06    
7.39246547693e-06   
7.28359366239e-06   
7.18815108181e-06   
6.99840404934e-06   
6.90298567758e-06   
6.80772817038e-06   
6.71234555456e-06   
6.52262857499e-06   
6.42727595936e-06   
6.2375763471e-06    
6.14225729715e-06   
6.05743540595e-06   
5.96541737936e-06   
5.87025866166e-06   
5.68057818235e-06   
5.58542706011e-06   
5.39574636529e-06   
5.30071040248e-06   
5.30021090628e-06   
5.11060615137e-06   
5.01563349773e-06   
1.15726107688e-05   
1.13811942344e-05   
1.12862832193e-05   
1.11897873792e-05   
1.0999808417e-05    
1.08117043623e-05   
1.07154896667e-05   
1.06198615278e-05   
1.04298290256e-05   
1.03342898054e-05   
1.01442145759e-05   
9.94064325906e-06   
9.8450177376e-06    
9.74945082333e-06   
9.55946011498e-06   
9.36951850176e-06   
9.27399725182e-06   
9.17842632415e-06   
8.98846604425e-06   
8.89303186172e-06   
8.71204962283e-06   
8.52672595516e-06   
8.43128757724e-06   
8.33586879482e-06   
8.05147054493e-06   
7.95608608787e-06   
7.86072170029e-06   
7.67086367735e-06   
7.57554215335e-06   
7.48024731545e-06   
7.19586468043e-06   
7.10065245053e-06   
7.00543093371e-06   
6.81565161121e-06   
6.70682970434e-06   
6.5171604757e-06    
6.42203112471e-06   
6.2324380757e-06    
6.04277749459e-06   
5.94778642391e-06   
1.39376081272e-05   
1.37480223667e-05   
1.35571700249e-05   
1.33663169465e-05   
1.317545646e-05     
1.30838020521e-05   
1.28785675504e-05   
1.26883881506e-05   
1.24982722411e-05   
1.23080479437e-05   
1.22123468455e-05   
1.2029547613e-05    
1.17513160663e-05   
1.15611835646e-05   
1.14655839075e-05   
1.12754682046e-05   
1.10853171382e-05   
1.0895280005e-05    
1.07996947354e-05   
1.06096300787e-05   
1.04059018047e-05   
1.03103695128e-05   
1.01203542283e-05   
9.93035306316e-06   
9.74036554662e-06   
9.55044326321e-06   
9.36049288111e-06   
9.26505003881e-06   
9.07515451208e-06   
8.88527220178e-06   
8.69539857008e-06   
8.50561069963e-06   
8.31577046889e-06   
8.22051055791e-06   
8.02658969409e-06   
7.84105406349e-06   
7.65142452263e-06   
7.46178445658e-06   
7.36672802345e-06   
7.08262850146e-06   
1.65874982355e-05   
1.63966580728e-05   
1.62055199855e-05   
1.59193852925e-05   
1.57290699817e-05   
1.55318592441e-05   
1.53439784988e-05   
1.51617434081e-05   
1.49714628766e-05   
1.47812460509e-05   
1.44964658484e-05   
1.43062172068e-05   
1.42105236538e-05   
1.40065231194e-05   
1.38162737535e-05   
1.35315896972e-05   
1.33414602662e-05   
1.31512569895e-05   
1.29611165538e-05   
1.26764790052e-05   
1.24935557355e-05   
1.22962418094e-05   
1.21062146813e-05   
1.1821634987e-05    
1.17260652263e-05   
1.1536113843e-05    
1.12515926731e-05   
1.10616433438e-05   
1.08717212793e-05   
1.05872667116e-05   
1.04780309745e-05   
1.02883005943e-05   
1.00039288285e-05   
9.81416834468e-06   
9.53861435677e-06   
9.44852709791e-06   
9.2589455468e-06    
8.97476527687e-06   
8.7852294206e-06    
8.58179884932e-06   
1.9895738448e-05    
1.9609475098e-05    
1.94190241054e-05   
1.92276200808e-05   
1.89424006681e-05   
1.87532309954e-05   
1.84723025895e-05   
1.81875147724e-05   
1.78887612516e-05   
1.76983973311e-05   
1.75080548974e-05   
1.72233535128e-05   
1.69384884575e-05   
1.67532712396e-05   
1.64634889657e-05   
1.62732334184e-05   
1.5988518629e-05    
1.5703853463e-05    
1.55136645619e-05   
1.53095057468e-05   
1.50249523188e-05   
1.47464239335e-05   
1.44695875813e-05   
1.427951148e-05     
1.39949666738e-05   
1.36965190848e-05   
1.35064500623e-05   
1.32220389905e-05   
1.30321882594e-05   
1.28422291603e-05   
1.25652160296e-05   
1.22735756212e-05   
1.20837389706e-05   
1.179957159e-05     
1.16098460707e-05   
1.13257567159e-05   
1.10416213217e-05   
1.08380638757e-05   
1.05541929835e-05   
1.02786389932e-05   
2.38639327576e-05   
2.36734908313e-05   
2.32925384607e-05   
2.30049837336e-05   
2.27201263533e-05   
2.24280421976e-05   
2.21443241773e-05   
2.18594394765e-05   
2.15772459059e-05   
2.11953017861e-05   
2.10049552923e-05   
2.07201388299e-05   
2.04353725245e-05   
2.00420888712e-05   
1.97608656927e-05   
1.94865791857e-05   
1.91878013145e-05   
1.89031068363e-05   
1.85239973817e-05   
1.82436624592e-05   
1.79546585569e-05   
1.76700639444e-05   
1.73854994033e-05   
1.71009664347e-05   
1.6802416489e-05    
1.65232723971e-05   
1.62476128354e-05   
1.5963220374e-05    
1.55703451844e-05   
1.52858823819e-05   
1.50016285497e-05   
1.47096071136e-05   
1.44332460006e-05   
1.41491284016e-05   
1.37704560255e-05   
1.34723651861e-05   
1.31884265377e-05   
1.29118087497e-05   
1.2634864958e-05    
1.23368458107e-05   
2.86802853154e-05   
2.82996374054e-05   
2.79173509598e-05   
2.76311452459e-05   
2.73449540375e-05   
2.68739381342e-05   
2.65849066633e-05   
2.62055612086e-05   
2.59066148709e-05   
2.55280147675e-05   
2.50677356935e-05   
2.47687767816e-05   
2.43895538512e-05   
2.4092174533e-05    
2.37257271856e-05   
2.33465478601e-05   
2.30498201074e-05   
2.26828990222e-05   
2.22895775705e-05   
2.2005115527e-05    
2.16288585142e-05   
2.1247093968e-05    
2.09627345381e-05   
2.05695687062e-05   
2.01942211135e-05   
1.98260658029e-05   
1.95276159953e-05   
1.91488569087e-05   
1.87601875949e-05   
1.83914723088e-05   
1.80128556705e-05   
1.76249449015e-05   
1.72557966767e-05   
1.69577150904e-05   
1.66736977016e-05   
1.63012572956e-05   
1.59174259598e-05   
1.55392908018e-05   
1.51469835038e-05   
1.48697263345e-05   
3.44383479472e-05   
3.39617669967e-05   
3.3579752728e-05    
3.31032476601e-05   
3.26267121573e-05   
3.23345911898e-05   
3.18584886661e-05   
3.1481794829e-05    
3.10061901119e-05   
3.06290683188e-05   
3.02356159591e-05   
2.97607849866e-05   
2.9383036475e-05    
2.89087122437e-05   
2.85305671385e-05   
2.80426468894e-05   
2.75691669456e-05   
2.71903575961e-05   
2.68118097334e-05   
2.63384051401e-05   
2.59450502005e-05   
2.54727078464e-05   
2.49987741993e-05   
2.46213289944e-05   
2.42413843784e-05   
2.37538312243e-05   
2.32831289774e-05   
2.29023829792e-05   
2.25265483376e-05   
2.20511646495e-05   
2.16584912383e-05   
2.11889448555e-05   
2.08076643992e-05   
2.03390211893e-05   
1.98625502816e-05   
1.94702437431e-05   
1.90022665252e-05   
1.86202627026e-05   
1.81529456061e-05   
1.77707074266e-05   
4.12337473236e-05   
4.07560646309e-05   
4.02784041068e-05   
3.98007767688e-05   
3.93217052827e-05   
3.86600178214e-05   
3.81924514814e-05   
3.76992082081e-05   
3.72312491052e-05   
3.66440050833e-05   
3.61710491309e-05   
3.57023732059e-05   
3.51160224742e-05   
3.46468581286e-05   
3.40611251e-05      
3.36826345102e-05   
3.31184716459e-05   
3.26428572504e-05   
3.20779751293e-05   
3.15883400038e-05   
3.10211989211e-05   
3.06444477203e-05   
3.00615189391e-05   
2.95901163322e-05   
2.90074782681e-05   
2.85347443452e-05   
2.8063124606e-05    
2.748146998e-05     
2.69291079893e-05   
2.64422660998e-05   
2.59707608781e-05   
2.54972263582e-05   
2.49178152588e-05   
2.4349835665e-05    
2.38646807496e-05   
2.32992058515e-05   
2.29192007922e-05   
2.23417700164e-05   
2.18668946002e-05   
2.13050111551e-05   
4.95422212357e-05   
4.89690657735e-05   
4.82998590961e-05   
4.77267345542e-05   
4.70565866432e-05   
4.64921851139e-05   
4.59105198385e-05   
4.52340473214e-05   
4.45725156183e-05   
4.3990382402e-05    
4.34237333351e-05   
4.27622974876e-05   
4.21802317898e-05   
4.15191789275e-05   
4.09521197238e-05   
4.03707791771e-05   
3.98037390715e-05   
3.91487735899e-05   
3.8546039332e-05    
3.78854194793e-05   
3.73185015882e-05   
3.66430776242e-05   
3.60762016309e-05   
3.54158755594e-05   
3.48341563549e-05   
3.41734949334e-05   
3.34984855017e-05   
3.29318562041e-05   
3.23681437337e-05   
3.17701257883e-05   
3.10160448336e-05   
3.04496674604e-05   
2.9869112538e-05    
2.93036379398e-05   
2.86438199701e-05   
2.80635569971e-05   
2.73104221166e-05   
2.67446113751e-05   
2.61648107084e-05   
2.55043892708e-05   
5.94701515154e-05   
5.86126622057e-05   
5.79394457562e-05   
5.71780615524e-05   
5.64103990948e-05   
5.57417470077e-05   
5.4977200453e-05    
5.41928416519e-05   
5.35454395779e-05   
5.28566209151e-05   
5.20199140436e-05   
5.13435666179e-05   
5.05615762108e-05   
4.99124869799e-05   
4.91421032996e-05   
4.82674851548e-05   
4.76168106057e-05   
4.68466331058e-05   
4.60673246672e-05   
4.54161746866e-05   
4.46461908464e-05   
4.38681916621e-05   
4.31215938456e-05   
4.24462828996e-05   
4.16696616901e-05   
4.10157836758e-05   
4.02409829021e-05   
3.94929102087e-05   
3.87235602376e-05   
3.79493661285e-05   
3.72938641834e-05   
3.65258511839e-05   
3.57531037288e-05   
3.50187254982e-05   
3.43433140132e-05   
3.35732936519e-05   
3.28218045714e-05   
3.2054843234e-05    
3.12853920913e-05   
3.06273779255e-05   
7.12308201174e-05   
7.03675659169e-05   
6.95045334653e-05   
6.85491372777e-05   
6.7776603226e-05    
6.68237333018e-05   
6.59626983703e-05   
6.50978664331e-05   
6.41393748346e-05   
6.32749912622e-05   
6.24101035726e-05   
6.14519255001e-05   
6.05871021012e-05   
5.97234770225e-05   
5.88586116201e-05   
5.80101328606e-05   
5.70524749955e-05   
5.61876451291e-05   
5.53236897814e-05   
5.43664135609e-05   
5.35016550461e-05   
5.26379330189e-05   
5.17742955469e-05   
5.08175171458e-05   
4.9952973274e-05    
4.90109230113e-05   
4.81476097907e-05   
4.72844745925e-05   
4.64213826739e-05   
4.54641424673e-05   
4.46013041677e-05   
4.3738599302e-05    
4.27818890234e-05   
4.19262586658e-05   
4.09474770896e-05   
4.01010123667e-05   
3.92373782658e-05   
3.83772919433e-05   
3.74217991744e-05   
3.65604845571e-05   
8.54384849484e-05   
8.43802032306e-05   
8.33235021896e-05   
8.22649626828e-05   
8.11143353273e-05   
8.01587684494e-05   
7.89905062975e-05   
7.79366498993e-05   
7.68834362899e-05   
7.57366811608e-05   
7.46668111408e-05   
7.37077945948e-05   
7.26546656399e-05   
7.15084380785e-05   
7.04546206991e-05   
6.9422573507e-05    
6.83167152777e-05   
6.71699203041e-05   
6.61172526574e-05   
6.50646720474e-05   
6.40121827674e-05   
6.29597893978e-05   
6.18135188875e-05   
6.0745137056e-05    
5.96930751499e-05   
5.87487030312e-05   
5.75731037792e-05   
5.65213150171e-05   
5.53757726873e-05   
5.44164430818e-05   
5.32569466167e-05   
5.22056670999e-05   
5.11527658518e-05   
5.01038508241e-05   
4.90510143291e-05   
4.80123869454e-05   
4.69340538045e-05   
4.57765624443e-05   
4.47243858755e-05   
4.36772544465e-05   
0.000102473577715   
0.000101212003959   
9.98679237597e-05   
9.8512949093e-05    
9.72624360345e-05   
9.59066958118e-05   
9.46608506275e-05   
9.33069357623e-05   
9.20463862969e-05   
9.08025289915e-05   
8.94173830494e-05   
8.8111802248e-05    
8.67569179176e-05   
8.54966079445e-05   
8.41428292733e-05   
8.28993291705e-05   
8.15189453323e-05   
8.03946198023e-05   
7.90426731717e-05   
7.77828974272e-05   
7.64296478066e-05   
7.50931637505e-05   
7.39252859758e-05   
7.25522454339e-05   
7.12382210501e-05   
6.99791703259e-05   
6.87180620639e-05   
6.73680617727e-05   
6.6123607956e-05    
6.47741349173e-05   
6.35891149151e-05   
6.22743293509e-05   
6.10136606073e-05   
5.96652603817e-05   
5.84216361383e-05   
5.70739340116e-05   
5.581388973e-05     
5.45442232723e-05   
5.33171266444e-05   
5.19710448942e-05   
0.000122807751166   
0.000121159000086   
0.000119518383942   
0.000118055009539   
0.000116417719819   
0.000114774318782   
0.000113122064481   
0.0001116662369     
0.000110026999036   
0.00010842630966    
0.00010682003248    
0.000105181606154   
0.000103726051083   
0.000102088136348   
0.000100539444076   
9.8936443633e-05    
9.73355404473e-05   
9.56978207765e-05   
9.42426966366e-05   
9.26054218138e-05   
9.10573086719e-05   
8.95420438663e-05   
8.78576835881e-05   
8.63098040142e-05   
8.47643757793e-05   
8.31287195378e-05   
8.16740181881e-05   
8.01119807771e-05   
7.85923398786e-05   
7.70055986701e-05   
7.53717312938e-05   
7.38246078442e-05   
7.22809312258e-05   
7.0737663076e-05    
6.92144767678e-05   
6.76344126831e-05   
6.60920436105e-05   
6.45500118485e-05   
6.300816297e-05     
6.14670456378e-05   
0.000147083285922   
0.000145146461368   
0.000143203139084   
0.000141088947481   
0.000139150137482   
0.000137125010826   
0.000135173987349   
0.00013315713619    
0.000131212669877   
0.000129270258538   
0.000127252937193   
0.000125309624411   
0.000123277230978   
0.00012135065669    
0.00011940876489    
0.000117484855547   
0.000115544189068   
0.000113695389881   
0.000111680972388   
0.000109738415235   
0.000107797015276   
0.000105968290629   
0.000104027197461   
0.000102087193756   
0.000100258474536   
9.83188375064e-05   
9.63828187869e-05   
9.44254387033e-05   
9.26303984475e-05   
9.0691695562e-05    
8.88645452328e-05   
8.70194066251e-05   
8.50818643676e-05   
8.32555242168e-05   
8.14115682231e-05   
7.9567807867e-05    
7.77425965281e-05   
7.58070530677e-05   
7.39649379022e-05   
7.21409888617e-05   
0.000176152499277   
0.000173563450573   
0.000170957921138   
0.000168461763216   
0.000165950649762   
0.000163439672819   
0.000160930644207   
0.00015849211185    
0.000155829705028   
0.00015332724474    
0.000151070489614   
0.000148508381683   
0.000146004184912   
0.000143672284749   
0.000141186001894   
0.000138739503911   
0.000136275354635   
0.000133776572326   
0.000131528914331   
0.000129049889621   
0.000126754853649   
0.000124304078042   
0.000121920515928   
0.000119625443843   
0.00011726701278    
0.000114905843365   
0.000112503007668   
0.000110319475963   
0.000107878394476   
0.0001056547613     
0.000103403085107   
0.000101035917002   
9.88133451332e-05   
9.65597378931e-05   
9.42903802447e-05   
9.19998458974e-05   
8.98134163549e-05   
8.76364795186e-05   
8.5445626838e-05    
8.32573790948e-05   
0.000190632497486   
0.000188044049192   
0.000185364087009   
0.000182775930387   
0.000180190650162   
0.00017757451054    
0.000174982558392   
0.000172298259672   
0.000169890611681   
0.000167229706888   
0.000164640747429   
0.000162135054374   
0.000159571755847   
0.000157045988156   
0.000154392955221   
0.000152007824282   
0.000149479849666   
0.000146923538428   
0.000144414220328   
0.000141838900267   
0.000139327027117   
0.000136847235341   
0.00013437532314    
0.000131951254114   
0.000129384815407   
0.000126958677001   
0.000124511010966   
0.000122021083021   
0.000119681112937   
0.000117147894273   
0.000114695739312   
0.000112255010842   
0.000109876578883   
0.000107516187941   
0.000104991736981   
0.000102645001242   
0.000100197128133   
9.78208107188e-05   
9.5476680156e-05    
9.30292883352e-05   
0.000181096870232   
0.000179080601572   
0.000177081134018   
0.000175065505525   
0.000172972915297   
0.000170968294836   
0.000168985070938   
0.000166792134309   
0.000164870772572   
0.000162766957027   
0.000160599671625   
0.000158674522085   
0.000156550396502   
0.000154386477046   
0.000152365648469   
0.000150170798155   
0.000148102388216   
0.000146059168071   
0.000143863212769   
0.000141706589721   
0.000139680873193   
0.00013750762889    
0.00013538658877    
0.000133192027855   
0.000131042328358   
0.000129012492391   
0.000126798841261   
0.000124560233575   
0.000122433947399   
0.000120240985576   
0.000118007448887   
0.000115860263992   
0.000113668631537   
0.000111345293234   
0.000109214702426   
0.00010702467886    
0.000104781910157   
0.000102555505576   
0.000100367323651   
9.80543779453e-05   
0.000161926039395   
0.00016021086952    
0.000158615336225   
0.000156909806914   
0.000155204162379   
0.000153499194668   
0.000151809786455   
0.000150040171881   
0.000148408544872   
0.000146696166845   
0.00014489101313    
0.000143085556351   
0.000141321328002   
0.000139591577674   
0.000137880361254   
0.000136075481001   
0.000134271517679   
0.000132325324577   
0.000130684825745   
0.000128904206327   
0.000127006585144   
0.000125065774898   
0.000123328478197   
0.000121525212221   
0.000119629451543   
0.000117732939547   
0.000115703927799   
0.000113869971093   
0.000111974427754   
0.000110172918783   
0.00010827778368    
0.000106256533289   
0.000104348334603   
0.000102453442281   
0.000100467529561   
9.85747224352e-05   
9.64670380877e-05   
9.45320890794e-05   
9.25485485214e-05   
9.05626434647e-05   
0.000140268649015   
0.000138678846518   
0.000137068007532   
0.000135476720964   
0.00013388950759    
0.000132227615142   
0.000130793950735   
0.000129123714104   
0.000127429080823   
0.000125828774929   
0.000124204660267   
0.000122603674516   
0.000120909849129   
0.000119309366826   
0.00011770945746    
0.000116108874291   
0.000114391837028   
0.000112791471786   
0.000111098419104   
0.000109439675994   
0.000107781701409   
0.000106088721389   
0.00010439611275    
0.000102773179478   
0.000101080649701   
9.9388098999e-05    
9.77895544963e-05   
9.60978082891e-05   
9.44061265182e-05   
9.26211546982e-05   
9.09059852338e-05   
8.92148968321e-05   
8.75473594595e-05   
8.58100740767e-05   
8.41200774187e-05   
8.2337026768e-05    
8.06234534539e-05   
7.89345090372e-05   
7.71527202056e-05   
7.55578942586e-05   
0.00011957773231    
0.000118153116911   
0.000116727938759   
0.000115305325635   
0.000113881521327   
0.000112482980953   
0.000110989356999   
0.000109570087799   
0.000108118301222   
0.000106699013355   
0.000105248792094   
0.0001038863337     
0.000102468150245   
0.00010102522739    
9.94196295802e-05   
9.80014523961e-05   
9.65565750105e-05   
9.5190058365e-05    
9.37716507981e-05   
9.22359668671e-05   
9.08178050629e-05   
8.94002478263e-05   
8.79823690739e-05   
8.63565985686e-05   
8.49606860101e-05   
8.34502834555e-05   
8.20330319188e-05   
8.06164004264e-05   
7.91060708141e-05   