# vtk DataFile Version 3.0
PyPan mesh file. Generated by PyPan, USU AeroLab (c) 2020.
ASCII
DATASET POLYDATA
POINTS 4838 float
-0.39594            -1.2406             -0.27714            
-0.085785           -1.2406             -0.25904            
-0.085785           -1.0855             -0.23824            
-0.39594            -1.0855             -0.25985            
-2.8772             0.0                 -1.4449             
-2.567              0.0                 -1.4502             
2.0853              0.0                 -1.4056             
2.3955              0.0                 -1.3837             
-0.39594            0.0                 -1.4738             
-0.085785           0.0                 -1.4733             
7.3579              -1.1487             -0.28804            
7.0478              -1.1492             -0.28804            
7.0478              -1.2406             -0.16298            
7.3579              -1.2406             -0.20569            
-4.1178             -0.4798             -0.90835            
-4.1178             -0.54242            -0.83081            
-5.0483             -0.57282            -0.75327            
-5.3584             -0.5608             -0.75327            
-5.0483             -0.43832            -0.90835            
-5.3584             -0.42112            -0.90835            
3.3259              -1.2406             -0.80049            
3.6361              -1.2406             -0.78706            
3.6361              -1.0855             -0.83104            
3.3259              -1.0855             -0.8418             
2.0853              -1.2406             -0.86085            
2.3955              -1.2406             -0.84468            
2.3955              -1.0855             -0.87771            
2.0853              -1.0855             -0.8912             
0.84468             -1.2406             -0.19627            
1.1548              -1.2406             -0.17293            
1.1548              -1.0855             -0.13319            
0.84468             -1.0855             -0.16178            
-5.3584             -0.46597            0.33227             
-5.0483             -0.47992            0.33227             
-5.0483             -0.407              0.48735             
-5.3584             -0.39636            0.48735             
-1.6366             0.0                 -1.4638             
-1.3264             0.0                 -1.4676             
-4.1178             0.0                 -1.3823             
-3.8076             0.0                 -1.4023             
0.84468             0.0                 -1.4599             
1.1548              0.0                 -1.4508             
-6.599              0.0                 0.27819             
-6.2954             0.0                 0.48735             
-6.2889             -0.51069            -0.75327            
-6.599              -0.48834            -0.75327            
-6.2889             -0.46523            -0.80005            
6.1173              -1.2406             -0.70582            
5.8072              -1.2406             -0.71354            
6.1173              -1.0855             -0.76979            
5.8072              -1.0855             -0.77609            
4.8767              -1.2406             -0.74092            
4.5665              -1.2406             -0.75151            
4.8767              -1.0855             -0.79523            
4.5665              -1.0855             -0.80318            
-7.5295             -0.51155            -0.28804            
-7.8397             -0.46523            -0.36046            
-7.5295             -0.46523            -0.24255            
5.8072              0.0                 -0.82246            
6.1173              0.0                 -0.81107            
0.22437             -0.62031            0.072377            
0.53453             -0.62031            0.090155            
0.53453             -0.46523            0.16054             
0.22437             -0.46523            0.15107             
-0.39594            -0.62031            0.041374            
-0.085785           -0.62031            0.056087            
-0.085785           -0.46523            0.14286             
-0.39594            -0.46523            0.13628             
-2.2569             -0.62031            0.020331            
-1.9467             -0.62031            0.0098014           
-1.9467             -0.46523            0.14081             
-2.2569             -0.46523            0.15844             
-0.7061             -0.62031            0.028686            
-0.7061             -0.46523            0.13156             
-1.0163             -0.46523            0.12899             
-1.6366             -0.62031            0.0077822           
-1.3264             -0.62031            0.01119             
-1.3264             -0.46523            0.12883             
-1.6366             -0.46523            0.13187             
5.1869              0.0                 0.13616             
5.497               0.0                 0.13361             
4.5665              -1.8609             -0.24308            
4.8767              -1.8609             -0.23554            
4.8767              -1.7059             -0.18527            
4.5665              -1.7059             -0.18969            
5.8072              -1.8609             -0.22526            
6.1173              -1.8609             -0.22664            
6.1173              -1.7059             -0.1896             
5.8072              -1.7059             -0.18346            
-1.3264             -1.824              -0.75327            
-1.6366             -1.8032             -0.75327            
-1.3264             -1.6836             -0.90835            
-1.6366             -1.6661             -0.90835            
-2.567              -1.736              -0.75327            
-2.8772             -1.5803             -0.90835            
-2.8772             -1.6464             -0.83081            
-2.567              -1.6037             -0.90835            
2.3955              -1.8609             -0.70265            
2.0853              -1.8609             -0.72484            
2.3955              -1.7059             -0.77579            
2.0853              -1.7059             -0.80744            
0.84468             -1.8609             -0.78209            
1.1548              -1.8609             -0.77322            
1.1548              -1.7059             -0.8853             
0.84468             -1.7059             -0.90098            
2.3955              -1.7059             -0.25707            
2.0853              -1.7059             -0.26752            
3.6361              -1.7059             -0.21497            
3.3259              -1.7059             -0.22537            
0.22437             -1.2406             -0.23952            
0.53453             -1.2406             -0.21824            
0.53453             -1.0855             -0.1889             
0.22437             -1.0855             -0.21482            
2.7056              -1.2406             -0.057889           
3.0158              -1.2406             -0.037399           
2.7056              -1.0855             0.011937            
3.0158              -1.0855             0.037763            
2.0853              -0.93047            0.029273            
2.3955              -0.93047            0.059435            
2.3955              -0.77539            0.14224             
2.0853              -0.77539            0.11816             
-5.3584             -0.83148            -0.28804            
-5.0483             -0.84269            -0.28804            
-5.0483             -0.80102            -0.13296            
-5.3584             -0.78834            -0.13296            
-4.583              -0.85561            -0.28804            
-4.583              -0.8346             -0.2105             
-2.567              -0.93047            -0.30988            
-2.8772             -0.83846            -0.2105             
-2.2569             -0.93047            -0.31569            
-1.9467             -0.93047            -0.31588            
-1.9467             -0.7526             -0.13296            
-2.2569             -0.75573            -0.13296            
-7.2194             0.0                 0.052362            
-6.9092             0.0                 0.12622             
7.0478              -1.8609             -0.24582            
7.3579              -1.8609             -0.25524            
7.3579              -1.7059             -0.24704            
7.0478              -1.7059             -0.23228            
5.1869              -1.2406             0.018274            
5.497               -1.2406             0.0061928           
5.497               -1.0855             0.085209            
5.1869              -1.0855             0.10143             
4.5665              -1.2406             0.024555            
4.8767              -1.2406             0.024105            
4.8767              -1.0855             0.11066             
4.5665              -1.0855             0.11314             
-9.0803             0.0                 -0.7782             
-8.7701             0.0                 -0.86097            
-4.0281             -1.1631             -0.5982             
-3.9736             -1.2406             -0.5982             
-4.0466             -1.2406             -0.52066            
-4.1013             -1.1631             -0.52066            
-3.9702             -0.93047            -0.83081            
-4.024              -0.85293            -0.83081            
-3.897              -0.93047            -0.90835            
-3.9506             -0.85293            -0.90835            
-5.0483             -0.79992            -0.44312            
-5.3584             -0.79717            -0.44312            
-5.0483             -0.69218            -0.5982             
-5.3584             -0.68499            -0.5982             
[...]
CELL_DATA 9567
SCALARS panel_area float 1
LOOKUP_TABLE default
0.00312932775566    
0.00326395535351    
0.00338688831589    
0.00345167258839    
0.00341231066285    
0.00339013336095    
0.0040761177721     
0.00407252504576    
0.00406801104793    
0.00487560825834    
0.00488407481902    
0.00488078191373    
0.00584956169971    
0.0058431034861     
0.00586624579785    
0.00701200453864    
0.00702112958289    
0.00702580148171    
0.00840323876803    
0.00842238578875    
0.00843948501947    
0.0100701624888     
0.0101039016622     
0.0101210813805     
0.0120941866307     
0.0121285381943     
0.0121511572167     
0.0144975457663     
0.0145246161543     
0.0145572807714     
0.0173909338883     
0.0174231294231     
0.0174649100457     
0.0208422579737     
0.0208765627114     
0.0209225007087     
0.0249600499155     
0.024998468103      
0.0250487690744     
0.0298804048669     
0.0298816671299     
0.0299257825819     
0.0357036348279     
0.0357035813397     
0.0356672577493     
0.0425595928984     
0.0424422271342     
0.0423452438964     
0.0505813932883     
0.0502053046818     
0.0498972895549     
0.0597455229353     
0.0589580517211     
0.0581316796382     
0.0700029452643     
0.0682434753095     
0.0664577102711     
0.0754072258744     
0.0744807633578     
0.073442086163      
0.0727061966132     
0.0744626609522     
0.0761670953405     
0.0643274194743     
0.0666778656373     
0.0689615182073     
0.0539043622918     
0.0550593963723     
0.0562900298304     
0.0474547276245     
0.0453467870325     
0.0460023322626     
0.0368387494973     
0.0372460368156     
0.0376885111262     
0.0303137604999     
0.0305941766001     
0.0308715542511     
0.024997532254      
0.0251815973582     
0.0253973601642     
0.0205674081084     
0.0207276210899     
0.0208921378104     
0.0169603518907     
0.0170925718872     
0.0172322697304     
0.0139982390683     
0.0141365139938     
0.0142598371955     
0.0115879851878     
0.011667550423      
0.0117295508475     
0.00955733919051    
0.0096468072725     
0.00974671431851    
0.00793448135845    
0.00799633905955    
0.00808662546431    
0.0065789605373     
0.00663334166929    
0.00668149087296    
0.00546070622228    
0.0055080325609     
0.00557446556133    
0.0045379639784     
0.00457419362692    
0.00461577325156    
0.00377721543732    
0.00381816278045    
0.00387561047448    
0.00314958309082    
0.00317911824036    
0.00320881861672    
0.00262540941804    
0.00268635479782    
0.00274691592301    
0.00250824005258    
0.00243831979128    
0.00235674887045    
0.0032130037857     
0.00313100012207    
0.00326661404539    
0.00344033962639    
0.00345410221377    
0.00341564992839    
0.00409948173918    
0.00408010108755    
0.00407557840571    
0.0049002745696     
0.00487919678894    
0.00488952906613    
0.00587503367481    
0.00585633188318    
0.00584995014361    
0.00705214127256    
0.00702332615246    
0.00702973166797    
0.00844101436776    
0.00841816648632    
0.00843313244441    
0.010137728118      
0.0100899357694     
0.0101206386202     
0.0121483133174     
0.0121172995013     
0.0121570613198     
0.0145981987489     
0.0145381368936     
0.0145691241926     
0.017511662059      
0.0174449275781     
0.0174837961238     
0.0209671914575     
0.0209128908626     
0.0209575449128     
0.0251259732056     
0.0250594990427     
0.0251059562252     
0.0300715543121     
0.030025387075      
0.0300228689038     
0.0358878442513     
0.0358795256225     
0.0358852393369     
0.0427468039338     
0.0427871497377     
0.0426841935659     
0.0506374990553     
0.0508648405497     
0.0504846097218     
0.0595843963958     
0.0600586176477     
0.0592484582702     
0.0692681966678     
0.0702667875886     
0.0684808769659     
0.0748508357128     
0.0755618700777     
0.0745547425052     
0.0732079952313     
0.0727611775716     
0.0744029738586     
0.0649022429197     
0.0642385880198     
0.0665073724445     
0.0566623774268     
0.0537604331928     
0.0548924495794     
0.0448544735799     
0.0445004040168     
0.0451803322922     
0.0364293880083     
0.0366992909224     
0.0370947930216     
0.0299410546929     
0.0302022337325     
0.0304779123687     
0.0246234034003     
0.0249062196981     
0.0250903180418     
0.0202665668447     
0.0205101469109     
0.0206556390126     
0.0166800835119     
0.0169173548577     
0.0170353123618     
0.0137978882619     
0.0139628915319     
0.0140957217859     
0.0114009172698     
0.0115631338113     
0.0116500066284     
0.0094297955211     
0.00953676027626    
0.00963042601606    
0.00781709427917    
0.00791745671496    
0.00798451947978    
0.00645744331327    
0.00656719860405    
0.00662543508239    
0.0053818728914     
0.00545331056432    
0.00550271908834    
0.00447034938948    
0.00453351229139    
0.00457111423908    
0.0037076656615     
0.0037747738356     
0.00381379843759    
0.00310628305436    
0.0031488750411     
0.00317650777844    
0.00260962155238    
0.00262445708727    
0.00268374466229    
0.00241935646074    
0.00250641043704    
0.00243703345158    
0.00287627055555    
0.00272615857263    
0.00259154668018    
0.00242576241408    
0.00227496514703    
0.00209441095291    
0.00192894886064    
0.00174797160726    
0.0015829300842     
0.00130782971147    
0.00327870414698    
0.00306653579179    
0.00283788844617    
0.00264051197648    
0.00242218356306    
0.0022257593952     
0.00200845259473    
0.0018116400465     
0.00159945402902    
0.0014031208534     
0.00385908670247    
0.00361602914169    
0.00338258135632    
0.00312280100833    
0.00288954397808    
0.00264087593337    
0.00241794206021    
0.00215332340582    
0.00192087117197    
0.00167324880923    
0.00461391193045    
0.00431160320995    
0.00403719047447    
0.00375107022602    
0.00345651653704    
0.00316077355515    
0.00288004563762    
0.00260129765591    
0.00229084244824    
0.0020119531314     
0.00551819328052    
0.00517666292263    
0.00482307652533    
0.00448157930141    
0.00413857552827    
0.00380711661832    
0.00344335024897    
0.00309770833962    
0.00277148858832    
0.00239436391619    
0.0066087351008     
0.00620903410401    
0.00580522917347    
0.00538851381063    
0.00497408292376    
0.00454995012605    
0.0041388683987     
0.00373079489118    
0.00330067606391    
0.00287750322603    
0.00793539569783    
0.00744848804256    
0.00694849804639    
0.00645719515662    
0.00596412630479    
0.00547084348582    
0.00497677428064    
0.00446608099444    
0.00397443826144    
0.00346742513865    
0.00951358097024    
0.00893404968452    
0.00834455262489    
0.00775627156677    
0.00716441444148    
0.00657280498833    
0.00597543464758    
0.00539232255067    
0.00478474771881    
0.00414375001711    
0.0114482206157     
0.0107225706957     
0.010018805073      
0.00930518803407    
0.00858598165873    
0.00787967102602    
0.00715850161984    
0.00645314620055    
0.00574853412799    
0.00499912897081    
0.0137167596556     
0.0128754189818     
0.0120264476138     
0.0111771966916     
0.0103206343217     
0.00946861210463    
0.00861665996265    
0.00774989835349    
0.00688017336483    
0.00600048235833    
0.0164715442523     
0.0154433909748     
0.0144277441397     
0.0134013753935     
0.0123980400877     
0.0113643083753     
0.0103312654879     
0.00931470416015    
0.00828950940674    
0.00721437854315    
0.0197698765076     
0.0185502711374     
0.0173275838401     
0.0161072662125     
0.0148742217632     
0.0136466085644     
0.0124267830971     
0.0111879059779     
0.00994649648759    
0.00867431227352    
0.0237386937784     
0.0222731433863     
0.0208112512378     
0.0193401688102     
0.0178693748637     
0.0163833750518     
0.0148951216342     
0.0134108925666     
0.0119472136153     
0.0104163617826     
0.0285042267524     
0.0267345595568     
0.0249612170949     
0.0231908329582     
0.021413145164      
0.0196518624007     
0.0178835943217     
0.0161004790743     
0.0143333062813     
0.0125251738627     
0.0342155425889     
0.0321069729235     
0.0299578132726     
0.0278389364956     
0.0257034063752     
0.0235701670933     
0.021437588928      
0.0193122572563     
0.0171587107543     
0.0150407376699     
0.0411070300222     
0.0385032323202     
0.0359167922615     
0.0333410694979     
0.0307805604839     
0.0281838678186     
0.0256292687686     
0.023069565589      
0.0205180367851     
0.0180163105525     
0.0493499702342     
0.0461930536658     
0.0430499688614     
0.0398969599778     
0.0367576644164     
0.033661656019      
0.0305560072716     
0.0274581046481     
0.0243953250566     
0.0215692070816     
0.0592427133821     
0.0553181135034     
0.0514256071319     
0.0475663972309     
0.0437397025948     
0.0399466536609     
0.0361866593528     
0.0324597930539     
0.0287663040204     
0.0256787916383     
0.0710520993046     
0.0661056415237     
0.0612003924754     
0.0563828911449     
0.0516635645854     
0.0469920440388     
0.04238812453       
0.0378644807471     
0.0334150919513     
0.0303134537624     
0.0775410174468     
0.072364588962      
0.0671969970338     
0.062103449427      
0.057039006596      
0.0520279900531     
0.0470983028362     
0.0421896839877     
0.0373318872037     
0.0334327176707     
0.074732678557      
0.0704212390451     
0.0660673897563     
0.0617126000893     
0.0572610375869     
0.0527572886278     
0.0482412036593     
0.0436316088785     
0.0390006735214     
0.0334404355411     
0.0673415023411     
0.0636747310143     
0.0599393147275     
0.0560873307612     
0.0522146390644     
0.0482191719811     
0.0441956105789     
0.0400673183933     
0.0358987733661     
0.0303578808593     
0.058386278356      
0.0549548882662     
0.0514910727573     
0.0479877725222     
0.0444417547368     
0.0408910338758     
0.0372852521185     
0.0336420328037     
0.0299867897814     
0.0256944748053     
0.049877829266      
0.0468016416171     
0.0437334734163     
0.0406380649497     
0.0375416863676     
0.0344149047118     
0.0312849527024     
0.0281355818955     
0.0249711420348     
0.0215823330264     
0.0421956415368     
0.0395344459852     
0.0368627829278     
0.0341867191872     
0.0315205360113     
0.0288381717982     
0.026163108348      
0.0234820489698     
0.0207977090806     
0.0180218300135     
0.0355217233472     
0.0332310195946     
0.0309666914777     
0.028692717973      
0.0264020243689     
0.024127710305      
0.0218558514836     
0.0195616758683     
0.0172915079869     
0.0149987222077     
0.0297799282888     
0.0278477550418     
0.0259257202339     
0.023987875285      
0.0220701428815     
0.0201324695958     
0.0182108249551     
0.0162949655942     
0.0143780975221     
0.0125089984336     
0.0249445574375     
0.0233228874839     
0.0216737083453     
0.0200411014078     
0.0184235259703     
0.0168014975403     
0.0151793947328     
0.0135626280351     
0.0119457004854     
0.0103747363616     
0.0208392451625     
0.0194642912238     
0.0181001903015     
0.0167399816482     
0.0153639258801     
0.0140114502117     
0.0126552820714     
0.0113034107352     
0.00994411461647    
0.00864199132919    
0.017408399265      
0.0162553266046     
0.0151023849716     
0.0139645196148     
0.0128148321193     
0.0116652886151     
0.0105313149781     
0.00939732741737    
0.00827302582852    
0.00717222608849    
0.0145238991227     
0.0135594477109     
0.0126066349598     
0.0116429818901     
0.0106968646953     
0.00974205580863    
0.00878728208896    
0.00783276662548    
0.00687850885593    
0.00597018036907    
0.0121239365853     
0.0113247282889     
0.0105129584041     
0.00970322973792    
0.00890224898191    
0.00810864141451    
0.00731733876036    
0.0065142122193     
0.0057388490408     
0.00497860205211    
0.0101226109628     
0.00944029748926    
0.00876509485283    
0.00809892651338    
0.00742814308025    
0.00675730572978    
0.00608654702819    
0.00542979253081    
0.0047614128453     
0.00412153988671    
0.00843481180573    
0.00786655625709    
0.00730365823151    
0.00675514280122    
0.00618900266615    
0.00563875320511    
0.0050731895475     
0.0045190130686     
0.00397037697947    
0.00343561272366    
0.00702508937247    
0.00656407082151    
0.00609073422703    
0.00561628917481    
0.0051666169438     
0.0046903753947     
0.0042295974681     
0.00376906796079    
0.0033062578742     
0.00287378913548    
0.00586881172063    
0.00547431140941    
0.0050814367026     
0.00468815239256    
0.00430147065691    
0.00391371729077    
0.00354003085764    
0.0031384412891     
0.00275315793096    
0.00238199368274    
0.004887762972      
0.00456466580229    
0.00423861271775    
0.00392904128754    
0.00358593927636    
0.00327230334263    
0.00294585172377    
0.00261760301707    
0.00229302805944    
0.00199366551814    
0.00406901213596    
0.0038045661382     
0.00354101314511    
0.00325994361873    
0.00300951885706    
0.00272494909783    
0.00245909971475    
0.00220507880417    
0.00193693987592    
0.00165650823244    
0.00340047871314    
0.00318007142431    
0.00296949043698    
0.0027464769804     
0.00251108546755    
0.00230106754894    
0.00207810723806    
0.00185535149974    
0.00161783313052    
0.00138001894906    
0.00335810876549    
0.00310092281499    
0.00283390717488    
0.00259776561298    
0.00234103662172    
0.00211857103096    
0.00186473694087    
0.00165538177477    
0.00143246038059    
0.00131533098044    
0.00300625125733    
0.00287720211743    
0.00272698596467    
0.0025923895193     
0.00242576569881    
0.00227643680097    
0.00209510771614    
0.00192970367281    
0.00174867559026    
0.00158354837971    
0.00349215078361    
0.00328025240465    
0.00306697135529    
0.00283842417793    
0.00264104425252    
0.0024235411552     
0.00222705485776    
0.00200917690649    
0.00181231790557    
0.00160004116253    
0.00410021383149    
0.00386071206421    
0.00361757024608    
0.00338310895433    
0.00312426646138    
0.00289103759756    
0.0026415346756     
0.00241854760068    
0.00215464955779    
0.00192209811791    
0.00490528647807    
0.00461512125915    
0.00431320345432    
0.00403858352674    
0.00375381817194    
0.00345791392025    
0.00316135056853    
0.00288244362545    
0.00260279824783    
0.00229219006349    
0.00585336825336    
0.00552088685276    
0.00517960842097    
0.00482580675574    
0.00448296556574    
0.00414123975024    
0.00380861751803    
0.00344700904683    
0.00309938759053    
0.00277385343855    
0.00703732781237    
0.00661311186021    
0.00621194354885    
0.00580762976907    
0.00539289642291    
0.00497830435189    
0.00455124205278    
0.00414295287576    
0.00373351406498    
0.00330428123317    
0.00842459431403    
0.00793985562059    
0.00745277996055    
0.00695488611648    
0.00646163110522    
0.00596841197425    
0.00547359157424    
0.00498418888885    
0.00447053974736    
0.00397862368836    
0.0101281174813     
0.00951723663673    
0.00894338841475    
0.0083483564191     
0.00776269322084    
0.00717063942165    
0.00657921360149    
0.00598374344014    
0.00539692142335    
0.00479193474198    
0.0121415258481     
0.0114537923818     
0.0107345962484     
0.0100275822261     
0.00931704234984    
0.00859499726985    
0.00788869530438    
0.00716751271836    
0.00646219648224    
0.00575861273762    
0.0145743675429     
0.0137329627862     
0.0128916639987     
0.0120347069175     
0.0111923511118     
0.0103329176051     
0.00948064536449    
0.00862874213313    
0.00776421173323    
0.00689356789174    
0.017503491119      
0.0164819411514     
0.0154590070011     
0.0144479067759     
0.0134218319287     
0.012410254742      
0.011383601533      
0.010350812117      
0.00933410800092    
0.00830473052195    
0.0210249607826     
0.0197894471023     
0.0185821887821     
0.0173533822979     
0.0161276947081     
0.0148997232478     
0.0136721195861     
0.0124481340889     
0.0112123167298     
0.00996938484823    
0.0252324646192     
0.0237710025422     
0.0223053075605     
0.0208431026821     
0.0193720262102     
0.0179009441098     
0.0164200070252     
0.0149271973421     
0.0134471472649     
0.0119771655131     
0.0303081051299     
0.0285542558368     
0.0267751591189     
0.025010226351      
0.0232322072823     
0.0214545287872     
0.0196933604144     
0.0179245900729     
0.016142131249      
0.0143758827901     
0.0364158843307     
0.0342797870419     
0.0321494743007     
0.0300102893645     
0.0279001124667     
0.0257566800896     
0.0236231405038     
0.0214976329121     
0.0193655191411     
0.0172151133708     
0.0437562261817     
0.0411676599033     
0.0385749649848     
0.0359908445624     
0.0334035077208     
0.0308422849751     
0.0282555432305     
0.0256932134128     
0.0231327763033     
0.0205789579653     
0.0526007999208     
0.0494279204277     
0.0462711687644     
0.0431146230007     
0.039974747684      
0.0368360123552     
0.0337296277657     
0.0306235956635     
0.027535755973      
0.0244639834881     
0.0632634294968     
0.0593250014001     
0.0553840888522     
0.0514928831975     
0.0476340874509     
0.0438085622481     
0.040016093339      
0.0362562997278     
0.0325202255973     
0.0288385111512     
0.0761040002127     
0.0710946326492     
0.066107294855      
0.0612421803102     
0.0564257655598     
0.0516913710293     
0.0470348704988     
0.042418476044      
0.0378955792299     
0.0334729834026     
0.0827538037564     
0.0774921983173     
0.0722920786314     
0.0671668315401     
0.0620527204812     
0.0569884037357     
0.0520105425447     
0.047050708819      
0.0421694026968     
0.0373187264041     
0.0788312757818     
0.0745872388158     
0.0703000045936     
0.0659477003788     
0.0615933205447     
0.0571265053187     
0.0526558595785     
0.048110773894      
0.0435301005324     
0.0388862464946     
0.0707755348568     
0.0671912428895     
0.0635291485909     
0.059778941972      
0.0559299732879     
0.0520438460286     
0.048080617343      
0.044017388083      
0.0399159684079     
0.0357311931532     
0.0616608599855     
0.058254665777      
0.0548079190291     
0.0513304596046     
0.0478423721744     
0.044285437999      
0.0407475280609     
0.0371197837065     
0.0334985574564     
0.0298260839804     
0.0527873431139     
0.0497390203547     
0.0466766043465     
0.0435974201353     
0.0405148908559     
0.0374070575275     
0.0342926634352     
0.0311423338267     
0.0280116684611     
0.0248355064684     
0.0447580079197     
0.042079149126      
0.0394421679094     
0.036748709019      
0.0340825374289     
0.0314169503144     
0.028725832178      
0.026058002231      
0.0233784521679     
0.0206852678129     
0.0377129612811     
0.0354374633333     
0.0331572444168     
0.0308819581295     
0.0286092987127     
0.026318517797      
0.0240434838954     
0.0217726334739     
0.0194777823358     
0.017207509885      
0.0316582271394     
0.0297179039754     
0.0277841826822     
0.0258628953597     
0.0239249193995     
0.022007574326      
0.0200693955048     
0.0181480823481     
0.0162372356573     
0.0143148931002     
0.0265275947311     
0.0248981161204     
0.0232768582629     
0.0216281007632     
0.0199941300356     
0.0183715650131     
0.0167595242776     
0.0151331465285     
0.0135159807378     
0.011898399899      
0.0221824111327     
0.0208047460931     
0.0194303447799     
0.0180652791952     
0.0167050911604     
0.0153294667193     
0.0139810272184     
0.0126206441827     
0.0112691151086     
0.00991199771065    
0.0185382490835     
0.0173836960035     
0.0162256087423     
0.015081765244      
0.0139399121784     
0.0127901391261     
0.0116402217039     
0.0105062352715     
0.00937217994812    
0.00824982654122    
0.0154714145705     
0.0145069553331     
0.0135423160496     
0.0125896088919     
0.0116257318373     
0.0106798395022     
0.00972470274587    
0.00877018061079    
0.00781563242162    