# vtk DataFile Version 3.0
PyPan mesh file. Generated by PyPan, USU AeroLab (c) 2020.
ASCII
DATASET POLYDATA
POINTS 1338 float
0.0                 -8.0                0.0                 
0.0                 -7.5789475441       0.0                 
0.0                 -7.15789461136      0.0                 
0.0                 -6.73684215546      0.0                 
0.0                 -6.31578969955      0.0                 
0.0                 -5.89473676682      0.0                 
0.0                 -5.47368431091      0.0                 
0.0                 -5.05263137817      0.0                 
0.0                 -4.63157892227      0.0                 
0.0                 -4.21052646637      0.0                 
0.0                 -3.78947377205      0.0                 
0.0                 -3.36842107773      0.0                 
0.0                 -2.94736838341      0.0                 
0.0                 -2.52631568909      0.0                 
0.0                 -2.10526323318      0.0                 
0.0                 -1.68421053886      0.0                 
0.0                 -1.26315784454      0.0                 
0.0                 -0.842105269432     0.0                 
0.0                 -0.421052634716     0.0                 
0.0                 0.0                 0.0                 
0.0                 0.421052634716      0.0                 
0.0                 0.842105269432      0.0                 
0.0                 1.26315784454       0.0                 
0.0                 1.68421053886       0.0                 
0.0                 2.10526323318       0.0                 
0.0                 2.52631568909       0.0                 
0.0                 2.94736838341       0.0                 
0.0                 3.36842107773       0.0                 
0.0                 3.78947377205       0.0                 
0.0                 4.21052646637       0.0                 
0.0                 4.63157892227       0.0                 
0.0                 5.05263137817       0.0                 
0.0                 5.47368431091       0.0                 
0.0                 5.89473676682       0.0                 
0.0                 6.31578969955       0.0                 
0.0                 6.73684215546       0.0                 
0.0                 7.15789461136       0.0                 
0.0                 7.5789475441        0.0                 
0.0                 8.0                 0.0                 
0.257792294025      -8.13179969788      -1.40525558511e-16  
0.257792294025      -8.0931968689       -0.0931966677308    
0.257792294025      -8.0931968689       0.0931966677308     
0.257792294025      -8.0                -0.131799980998     
0.257792294025      -8.0                0.131799980998      
0.257792294025      -7.5789475441       -0.131799980998     
0.257792294025      -7.5789475441       0.131799980998      
0.257792294025      -7.15789461136      -0.131799980998     
0.257792294025      -7.15789461136      0.131799980998      
0.257792294025      -6.73684215546      -0.131799980998     
0.257792294025      -6.73684215546      0.131799980998      
0.257792294025      -6.31578969955      -0.131799980998     
0.257792294025      -6.31578969955      0.131799980998      
0.257792294025      -5.89473676682      -0.131799980998     
0.257792294025      -5.89473676682      0.131799980998      
0.257792294025      -5.47368431091      -0.131799980998     
0.257792294025      -5.47368431091      0.131799980998      
0.257792294025      -5.05263137817      -0.131799980998     
0.257792294025      -5.05263137817      0.131799980998      
0.257792294025      -4.63157892227      -0.131799980998     
0.257792294025      -4.63157892227      0.131799980998      
0.257792294025      -4.21052646637      -0.131799980998     
0.257792294025      -4.21052646637      0.131799980998      
0.257792294025      -3.78947377205      -0.131799980998     
0.257792294025      -3.78947377205      0.131799980998      
0.257792294025      -3.36842107773      -0.131799980998     
0.257792294025      -3.36842107773      0.131799980998      
0.257792294025      -2.94736838341      -0.131799980998     
0.257792294025      -2.94736838341      0.131799980998      
0.257792294025      -2.52631568909      -0.131799980998     
0.257792294025      -2.52631568909      0.131799980998      
0.257792294025      -2.10526323318      -0.131799980998     
0.257792294025      -2.10526323318      0.131799980998      
0.257792294025      -1.68421053886      -0.131799980998     
0.257792294025      -1.68421053886      0.131799980998      
0.257792294025      -1.26315784454      -0.131799980998     
0.257792294025      -1.26315784454      0.131799980998      
0.257792294025      -0.842105269432     -0.131799980998     
0.257792294025      -0.842105269432     0.131799980998      
0.257792294025      -0.421052634716     -0.131799980998     
0.257792294025      -0.421052634716     0.131799980998      
0.257792294025      0.0                 -0.131799980998     
0.257792294025      0.0                 0.131799980998      
0.257792294025      0.421052634716      -0.131799980998     
0.257792294025      0.421052634716      0.131799980998      
0.257792294025      0.842105269432      -0.131799980998     
0.257792294025      0.842105269432      0.131799980998      
0.257792294025      1.26315784454       -0.131799980998     
0.257792294025      1.26315784454       0.131799980998      
0.257792294025      1.68421053886       -0.131799980998     
0.257792294025      1.68421053886       0.131799980998      
0.257792294025      2.10526323318       -0.131799980998     
0.257792294025      2.10526323318       0.131799980998      
0.257792294025      2.52631568909       -0.131799980998     
0.257792294025      2.52631568909       0.131799980998      
0.257792294025      2.94736838341       -0.131799980998     
0.257792294025      2.94736838341       0.131799980998      
0.257792294025      3.36842107773       -0.131799980998     
0.257792294025      3.36842107773       0.131799980998      
0.257792294025      3.78947377205       -0.131799980998     
0.257792294025      3.78947377205       0.131799980998      
0.257792294025      4.21052646637       -0.131799980998     
0.257792294025      4.21052646637       0.131799980998      
0.257792294025      4.63157892227       -0.131799980998     
0.257792294025      4.63157892227       0.131799980998      
0.257792294025      5.05263137817       -0.131799980998     
0.257792294025      5.05263137817       0.131799980998      
0.257792294025      5.47368431091       -0.131799980998     
0.257792294025      5.47368431091       0.131799980998      
0.257792294025      5.89473676682       -0.131799980998     
0.257792294025      5.89473676682       0.131799980998      
0.257792294025      6.31578969955       -0.131799980998     
0.257792294025      6.31578969955       0.131799980998      
0.257792294025      6.73684215546       -0.131799980998     
0.257792294025      6.73684215546       0.131799980998      
0.257792294025      7.15789461136       -0.131799980998     
0.257792294025      7.15789461136       0.131799980998      
0.257792294025      7.5789475441        -0.131799980998     
0.257792294025      7.5789475441        0.131799980998      
0.257792294025      8.0                 -0.131799980998     
0.257792294025      8.0                 0.131799980998      
0.257792294025      8.0931968689        -0.0931966677308    
0.257792294025      8.0931968689        0.0931966677308     
0.257792294025      8.13179969788       -1.40525558511e-16  
0.53631067276       -8.17226982117      1.24489979086e-18   
0.53631067276       -8.12181282043      -0.121813081205     
0.53631067276       -8.12181282043      0.121813081205      
0.53631067276       -8.0                -0.172269701958     
0.53631067276       -8.0                0.172269701958      
0.53631067276       -7.5789475441       -0.172269701958     
0.53631067276       -7.5789475441       0.172269701958      
0.53631067276       -7.15789461136      -0.172269701958     
0.53631067276       -7.15789461136      0.172269701958      
0.53631067276       -6.73684215546      -0.172269701958     
0.53631067276       -6.73684215546      0.172269701958      
0.53631067276       -6.31578969955      -0.172269701958     
0.53631067276       -6.31578969955      0.172269701958      
0.53631067276       -5.89473676682      -0.172269701958     
0.53631067276       -5.89473676682      0.172269701958      
0.53631067276       -5.47368431091      -0.172269701958     
0.53631067276       -5.47368431091      0.172269701958      
0.53631067276       -5.05263137817      -0.172269701958     
0.53631067276       -5.05263137817      0.172269701958      
0.53631067276       -4.63157892227      -0.172269701958     
0.53631067276       -4.63157892227      0.172269701958      
0.53631067276       -4.21052646637      -0.172269701958     
0.53631067276       -4.21052646637      0.172269701958      
0.53631067276       -3.78947377205      -0.172269701958     
0.53631067276       -3.78947377205      0.172269701958      
0.53631067276       -3.36842107773      -0.172269701958     
0.53631067276       -3.36842107773      0.172269701958      
0.53631067276       -2.94736838341      -0.172269701958     
0.53631067276       -2.94736838341      0.172269701958      
0.53631067276       -2.52631568909      -0.172269701958     
0.53631067276       -2.52631568909      0.172269701958      
0.53631067276       -2.10526323318      -0.172269701958     
0.53631067276       -2.10526323318      0.172269701958      
0.53631067276       -1.68421053886      -0.172269701958     
0.53631067276       -1.68421053886      0.172269701958      
0.53631067276       -1.26315784454      -0.172269701958     
0.53631067276       -1.26315784454      0.172269701958      
0.53631067276       -0.842105269432     -0.172269701958     
[...]
CELL_DATA 2672
SCALARS panel_area float 1
LOOKUP_TABLE default
0.0639872919371     
0.0639872919371     
0.0592770305637     
0.0592770305637     
0.0556035290565     
0.0556035290565     
0.0527720192451     
0.0527720192451     
0.0506441833514     
0.0506441833514     
0.0491229557881     
0.0491229557881     
0.0481426858751     
0.0481426858751     
0.0476621352147     
0.0476621352147     
0.0476621314806     
0.0476621314806     
0.0481424383334     
0.0481424383334     
0.0491224763198     
0.0491224763198     
0.0506432989406     
0.0506432989406     
0.0527701044006     
0.0527701044006     
0.0555978811616     
0.0555978811616     
0.0592512044738     
0.0592512044738     
0.0609538595213     
0.0609538595213     
0.0609538595213     
0.0609538595213     
0.0592512044738     
0.0592512044738     
0.0555978811616     
0.0555978811616     
0.0527701044006     
0.0527701044006     
0.0506432989406     
0.0506432989406     
0.0491224763198     
0.0491224763198     
0.0481424383334     
0.0481424383334     
0.0476621314806     
0.0476621314806     
0.0476621352147     
0.0476621352147     
0.0481426858751     
0.0481426858751     
0.0491229557881     
0.0491229557881     
0.0506441833514     
0.0506441833514     
0.0527720192451     
0.0527720192451     
0.0556035290565     
0.0556035290565     
0.0592770305637     
0.0592770305637     
0.0639872919371     
0.0639872919371     
0.0639872919371     
0.0639872919371     
0.0592770305637     
0.0592770305637     
0.0556035290565     
0.0556035290565     
0.0527720192451     
0.0527720192451     
0.0506441833514     
0.0506441833514     
0.0491229557881     
0.0491229557881     
0.0481426858751     
0.0481426858751     
0.0476621352147     
0.0476621352147     
0.0476621314806     
0.0476621314806     
0.0481424383334     
0.0481424383334     
0.0491224763198     
0.0491224763198     
0.0506432989406     
0.0506432989406     
0.0527701044006     
0.0527701044006     
0.0555978811616     
0.0555978811616     
0.0592512044738     
0.0592512044738     
0.0609538595213     
0.0609538595213     
0.0609538595213     
0.0609538595213     
0.0592512044738     
0.0592512044738     
0.0555978811616     
0.0555978811616     
0.0527701044006     
0.0527701044006     
0.0506432989406     
0.0506432989406     
0.0491224763198     
0.0491224763198     
0.0481424383334     
0.0481424383334     
0.0476621314806     
0.0476621314806     
0.0476621352147     
0.0476621352147     
0.0481426858751     
0.0481426858751     
0.0491229557881     
0.0491229557881     
0.0506441833514     
0.0506441833514     
0.0527720192451     
0.0527720192451     
0.0556035290565     
0.0556035290565     
0.0592770305637     
0.0592770305637     
0.0639872919371     
0.0639872919371     
0.063987282879      
0.063987282879      
0.0592770221723     
0.0592770221723     
0.0556035211852     
0.0556035211852     
0.0527720117746     
0.0527720117746     
0.0506441761822     
0.0506441761822     
0.0491229488342     
0.0491229488342     
0.04814267906       
0.04814267906       
0.0476621284676     
0.0476621284676     
0.0476621247335     
0.0476621247335     
0.0481424315183     
0.0481424315183     
0.0491224693659     
0.0491224693659     
0.0506432917715     
0.0506432917715     
0.0527700969304     
0.0527700969304     
0.0555978732911     
0.0555978732911     
0.0592511960861     
0.0592511960861     
0.0609538508926     
0.0609538508926     
0.0609538508926     
0.0609538508926     
0.0592511960861     
0.0592511960861     
0.0555978732911     
0.0555978732911     
0.0527700969304     
0.0527700969304     
0.0506432917715     
0.0506432917715     
0.0491224693659     
0.0491224693659     
0.0481424315183     
0.0481424315183     
0.0476621247335     
0.0476621247335     
0.0476621284676     
0.0476621284676     
0.04814267906       
0.04814267906       
0.0491229488342     
0.0491229488342     
0.0506441761822     
0.0506441761822     
0.0527720117746     
0.0527720117746     
0.0556035211852     
0.0556035211852     
0.0592770221723     
0.0592770221723     
0.063987282879      
0.063987282879      
0.0639873009952     
0.0639873009952     
0.059277038955      
0.059277038955      
0.0556035369278     
0.0556035369278     
0.0527720267155     
0.0527720267155     
0.0506441905206     
0.0506441905206     
0.049122962742      
0.049122962742      
0.0481426926902     
0.0481426926902     
0.0476621419618     
0.0476621419618     
0.0476621382277     
0.0476621382277     
0.0481424451485     
0.0481424451485     
0.0491224832736     
0.0491224832736     
0.0506433061098     
0.0506433061098     
0.0527701118708     
0.0527701118708     
0.0555978890321     
0.0555978890321     
0.0592512128614     
0.0592512128614     
0.06095386815       
0.06095386815       
0.06095386815       
0.06095386815       
0.0592512128614     
0.0592512128614     
0.0555978890321     
0.0555978890321     
0.0527701118708     
0.0527701118708     
0.0506433061098     
0.0506433061098     
0.0491224832736     
0.0491224832736     
0.0481424451485     
0.0481424451485     
0.0476621382277     
0.0476621382277     
0.0476621419618     
0.0476621419618     
0.0481426926902     
0.0481426926902     
0.049122962742      
0.049122962742      
0.0506441905206     
0.0506441905206     
0.0527720267155     
0.0527720267155     
0.0556035369278     
0.0556035369278     
0.059277038955      
0.059277038955      
0.0639873009952     
0.0639873009952     
0.0639873009952     
0.0639873009952     
0.059277038955      
0.059277038955      
0.0556035369278     
0.0556035369278     
0.0527720267155     
0.0527720267155     
0.0506441905206     
0.0506441905206     
0.049122962742      
0.049122962742      
0.0481426926902     
0.0481426926902     
0.0476621419618     
0.0476621419618     
0.0476621382277     
0.0476621382277     
0.0481424451485     
0.0481424451485     
0.0491224832736     
0.0491224832736     
0.0506433061098     
0.0506433061098     
0.0527701118708     
0.0527701118708     
0.0555978890321     
0.0555978890321     
0.0592512128614     
0.0592512128614     
0.06095386815       
0.06095386815       
0.06095386815       
0.06095386815       
0.0592512128614     
0.0592512128614     
0.0555978890321     
0.0555978890321     
0.0527701118708     
0.0527701118708     
0.0506433061098     
0.0506433061098     
0.0491224832736     
0.0491224832736     
0.0481424451485     
0.0481424451485     
0.0476621382277     
0.0476621382277     
0.0476621419618     
0.0476621419618     
0.0481426926902     
0.0481426926902     
0.049122962742      
0.049122962742      
0.0506441905206     
0.0506441905206     
0.0527720267155     
0.0527720267155     
0.0556035369278     
0.0556035369278     
0.059277038955      
0.059277038955      
0.0639873009952     
0.0639873009952     
0.0639872647628     
0.0639872647628     
0.0592770053897     
0.0592770053897     
0.0556035054426     
0.0556035054426     
0.0527719968337     
0.0527719968337     
0.0506441618437     
0.0506441618437     
0.0491229349264     
0.0491229349264     
0.0481426654297     
0.0481426654297     
0.0476621149734     
0.0476621149734     
0.0476621112393     
0.0476621112393     
0.0481424178881     
0.0481424178881     
0.0491224554583     
0.0491224554583     
0.0506432774333     
0.0506432774333     
0.05277008199       
0.05277008199       
0.0555978575501     
0.0555978575501     
0.0592511793108     
0.0592511793108     
0.0609538336352     
0.0609538336352     
0.0609538336352     
0.0609538336352     
0.0592511793108     
0.0592511793108     
0.0555978575501     
0.0555978575501     
0.05277008199       
0.05277008199       
0.0506432774333     
0.0506432774333     
0.0491224554583     
0.0491224554583     
0.0481424178881     
0.0481424178881     
0.0476621112393     
0.0476621112393     
0.0476621149734     
0.0476621149734     
0.0481426654297     
0.0481426654297     
0.0491229349264     
0.0491229349264     
0.0506441618437     
0.0506441618437     
0.0527719968337     
0.0527719968337     
0.0556035054426     
0.0556035054426     
0.0592770053897     
0.0592770053897     
0.0639872647628     
0.0639872647628     
0.0639873009952     
0.0639873009952     
0.059277038955      
0.059277038955      
0.0556035369278     
0.0556035369278     
0.0527720267155     
0.0527720267155     
0.0506441905206     
0.0506441905206     
0.049122962742      
0.049122962742      
0.0481426926902     
0.0481426926902     
0.0476621419618     
0.0476621419618     
0.0476621382277     
0.0476621382277     
0.0481424451485     
0.0481424451485     
0.0491224832736     
0.0491224832736     
0.0506433061098     
0.0506433061098     
0.0527701118708     
0.0527701118708     
0.0555978890321     
0.0555978890321     
0.0592512128614     
0.0592512128614     
0.06095386815       
0.06095386815       
0.06095386815       
0.06095386815       
0.0592512128614     
0.0592512128614     
0.0555978890321     
0.0555978890321     
0.0527701118708     
0.0527701118708     
0.0506433061098     
0.0506433061098     
0.0491224832736     
0.0491224832736     
0.0481424451485     
0.0481424451485     
0.0476621382277     
0.0476621382277     
0.0476621419618     
0.0476621419618     
0.0481426926902     
0.0481426926902     
0.049122962742      
0.049122962742      
0.0506441905206     
0.0506441905206     
0.0527720267155     
0.0527720267155     
0.0556035369278     
0.0556035369278     
0.059277038955      
0.059277038955      
0.0639873009952     
0.0639873009952     
0.0639873009952     
0.0639873009952     
0.059277038955      
0.059277038955      
0.0556035369278     
0.0556035369278     
0.0527720267155     
0.0527720267155     
0.0506441905206     
0.0506441905206     
0.049122962742      
0.049122962742      
0.0481426926902     
0.0481426926902     
0.0476621419618     
0.0476621419618     
0.0476621382277     
0.0476621382277     
0.0481424451485     
0.0481424451485     
0.0491224832736     
0.0491224832736     
0.0506433061098     
0.0506433061098     
0.0527701118708     
0.0527701118708     
0.0555978890321     
0.0555978890321     
0.0592512128614     
0.0592512128614     
0.06095386815       
0.06095386815       
0.06095386815       
0.06095386815       
0.0592512128614     
0.0592512128614     
0.0555978890321     
0.0555978890321     
0.0527701118708     
0.0527701118708     
0.0506433061098     
0.0506433061098     
0.0491224832736     
0.0491224832736     
0.0481424451485     
0.0481424451485     
0.0476621382277     
0.0476621382277     
0.0476621419618     
0.0476621419618     
0.0481426926902     
0.0481426926902     
0.049122962742      
0.049122962742      
0.0506441905206     
0.0506441905206     
0.0527720267155     
0.0527720267155     
0.0556035369278     
0.0556035369278     
0.059277038955      
0.059277038955      
0.0639873009952     
0.0639873009952     
0.0639873009952     
0.0639873009952     
0.059277038955      
0.059277038955      
0.0556035369278     
0.0556035369278     
0.0527720267155     
0.0527720267155     
0.0506441905206     
0.0506441905206     
0.049122962742      
0.049122962742      
0.0481426926902     
0.0481426926902     
0.0476621419618     
0.0476621419618     
0.0476621382277     
0.0476621382277     
0.0481424451485     
0.0481424451485     
0.0491224832736     
0.0491224832736     
0.0506433061098     
0.0506433061098     
0.0527701118708     
0.0527701118708     
0.0555978890321     
0.0555978890321     
0.0592512128614     
0.0592512128614     
0.06095386815       
0.06095386815       
0.06095386815       
0.06095386815       
0.0592512128614     
0.0592512128614     
0.0555978890321     
0.0555978890321     
0.0527701118708     
0.0527701118708     
0.0506433061098     
0.0506433061098     
0.0491224832736     
0.0491224832736     
0.0481424451485     
0.0481424451485     
0.0476621382277     
0.0476621382277     
0.0476621419618     
0.0476621419618     
0.0481426926902     
0.0481426926902     
0.049122962742      
0.049122962742      
0.0506441905206     
0.0506441905206     
0.0527720267155     
0.0527720267155     
0.0556035369278     
0.0556035369278     
0.059277038955      
0.059277038955      
0.0639873009952     
0.0639873009952     
0.0639873009952     
0.0639873009952     
0.059277038955      
0.059277038955      
0.0556035369278     
0.0556035369278     
0.0527720267155     
0.0527720267155     
0.0506441905206     
0.0506441905206     
0.049122962742      
0.049122962742      
0.0481426926902     
0.0481426926902     
0.0476621419618     
0.0476621419618     
0.0476621382277     
0.0476621382277     
0.0481424451485     
0.0481424451485     
0.0491224832736     
0.0491224832736     
0.0506433061098     
0.0506433061098     
0.0527701118708     
0.0527701118708     
0.0555978890321     
0.0555978890321     
0.0592512128614     
0.0592512128614     
0.06095386815       
0.06095386815       
0.06095386815       
0.06095386815       
0.0592512128614     
0.0592512128614     
0.0555978890321     
0.0555978890321     
0.0527701118708     
0.0527701118708     
0.0506433061098     
0.0506433061098     
0.0491224832736     
0.0491224832736     
0.0481424451485     
0.0481424451485     
0.0476621382277     
0.0476621382277     
0.0476621419618     
0.0476621419618     
0.0481426926902     
0.0481426926902     
0.049122962742      
0.049122962742      
0.0506441905206     
0.0506441905206     
0.0527720267155     
0.0527720267155     
0.0556035369278     
0.0556035369278     
0.059277038955      
0.059277038955      
0.0639873009952     
0.0639873009952     
0.0639872647628     
0.0639872647628     
0.0592770053897     
0.0592770053897     
0.0556035054426     
0.0556035054426     
0.0527719968337     
0.0527719968337     
0.0506441618437     
0.0506441618437     
0.0491229349264     
0.0491229349264     
0.0481426654297     
0.0481426654297     
0.0476621149734     
0.0476621149734     
0.0476621112393     
0.0476621112393     
0.0481424178881     
0.0481424178881     
0.0491224554583     
0.0491224554583     
0.0506432774333     
0.0506432774333     
0.05277008199       
0.05277008199       
0.0555978575501     
0.0555978575501     
0.0592511793108     
0.0592511793108     
0.0609538336352     
0.0609538336352     
0.0609538336352     
0.0609538336352     
0.0592511793108     
0.0592511793108     
0.0555978575501     
0.0555978575501     
0.05277008199       
0.05277008199       
0.0506432774333     
0.0506432774333     
0.0491224554583     
0.0491224554583     
0.0481424178881     
0.0481424178881     
0.0476621112393     
0.0476621112393     
0.0476621149734     
0.0476621149734     
0.0481426654297     
0.0481426654297     
0.0491229349264     
0.0491229349264     
0.0506441618437     
0.0506441618437     
0.0527719968337     
0.0527719968337     
0.0556035054426     
0.0556035054426     
0.0592770053897     
0.0592770053897     
0.0639872647628     
0.0639872647628     
0.0639872647628     
0.0639872647628     
0.0592770053897     
0.0592770053897     
0.0556035054426     
0.0556035054426     
0.0527719968337     
0.0527719968337     
0.0506441618437     
0.0506441618437     
0.0491229349264     
0.0491229349264     
0.0481426654297     
0.0481426654297     
0.0476621149734     
0.0476621149734     
0.0476621112393     
0.0476621112393     
0.0481424178881     
0.0481424178881     
0.0491224554583     
0.0491224554583     
0.0506432774333     
0.0506432774333     
0.05277008199       
0.05277008199       
0.0555978575501     
0.0555978575501     
0.0592511793108     
0.0592511793108     
0.0609538336352     
0.0609538336352     
0.0609538336352     
0.0609538336352     
0.0592511793108     
0.0592511793108     
0.0555978575501     
0.0555978575501     
0.05277008199       
0.05277008199       
0.0506432774333     
0.0506432774333     
0.0491224554583     
0.0491224554583     
0.0481424178881     
0.0481424178881     
0.0476621112393     
0.0476621112393     
0.0476621149734     
0.0476621149734     
0.0481426654297     
0.0481426654297     
0.0491229349264     
0.0491229349264     
0.0506441618437     
0.0506441618437     
0.0527719968337     
0.0527719968337     
0.0556035054426     
0.0556035054426     
0.0592770053897     
0.0592770053897     
0.0639872647628     
0.0639872647628     
0.0639873372277     
0.0639873372277     
0.0592770725202     
0.0592770725202     
0.055603568413      
0.055603568413      
0.0527720565974     
0.0527720565974     
0.0506442191976     
0.0506442191976     
0.0491229905576     
0.0491229905576     
0.0481427199507     
0.0481427199507     
0.0476621689502     
0.0476621689502     
0.0476621652161     
0.0476621652161     
0.0481424724089     
0.0481424724089     
0.0491225110889     
0.0491225110889     
0.0506433347862     
0.0506433347862     
0.0527701417516     
0.0527701417516     
0.0555979205141     
0.0555979205141     
0.0592512464121     
0.0592512464121     
0.0609539026648     
0.0609539026648     
0.0609539026648     
0.0609539026648     
0.0592512464121     
0.0592512464121     
0.0555979205141     
0.0555979205141     
0.0527701417516     
0.0527701417516     
0.0506433347862     
0.0506433347862     
0.0491225110889     
0.0491225110889     
0.0481424724089     
0.0481424724089     
0.0476621652161     
0.0476621652161     
0.0476621689502     
0.0476621689502     
0.0481427199507     
0.0481427199507     
0.0491229905576     
0.0491229905576     
0.0506442191976     
0.0506442191976     
0.0527720565974     
0.0527720565974     
0.055603568413      
0.055603568413      
0.0592770725202     
0.0592770725202     
0.0639873372277     
0.0639873372277     
0.0639872647628     
0.0639872647628     
0.0592770053897     
0.0592770053897     
0.0556035054426     
0.0556035054426     
0.0527719968337     
0.0527719968337     
0.0506441618437     
0.0506441618437     
0.0491229349264     
0.0491229349264     
0.0481426654297     
0.0481426654297     
0.0476621149734     
0.0476621149734     
0.0476621112393     
0.0476621112393     
0.0481424178881     
0.0481424178881     
0.0491224554583     
0.0491224554583     
0.0506432774333     
0.0506432774333     
0.05277008199       
0.05277008199       
0.0555978575501     
0.0555978575501     
0.0592511793108     
0.0592511793108     
0.0609538336352     
0.0609538336352     
0.0609538336352     
0.0609538336352     
0.0592511793108     
0.0592511793108     
0.0555978575501     
0.0555978575501     
0.05277008199       
0.05277008199       
0.0506432774333     
0.0506432774333     
0.0491224554583     
0.0491224554583     
0.0481424178881     
0.0481424178881     
0.0476621112393     
0.0476621112393     
0.0476621149734     
0.0476621149734     
0.0481426654297     
0.0481426654297     
0.0491229349264     
0.0491229349264     
0.0506441618437     
0.0506441618437     
0.0527719968337     
0.0527719968337     
0.0556035054426     
0.0556035054426     
0.0592770053897     
0.0592770053897     
0.0639872647628     
0.0639872647628     
0.0639873372277     
0.0639873372277     
0.0592770725202     
0.0592770725202     
0.055603568413      
0.055603568413      
0.0527720565974     
0.0527720565974     
0.0506442191976     
0.0506442191976     
0.0491229905576     
0.0491229905576     
0.0481427199507     
0.0481427199507     
0.0476621689502     
0.0476621689502     
0.0476621652161     
0.0476621652161     
0.0481424724089     
0.0481424724089     
0.0491225110889     
0.0491225110889     
0.0506433347862     
0.0506433347862     
0.0527701417516     
0.0527701417516     
0.0555979205141     
0.0555979205141     
0.0592512464121     
0.0592512464121     
0.0609539026648     
0.0609539026648     
0.0609539026648     
0.0609539026648     
0.0592512464121     
0.0592512464121     
0.0555979205141     
0.0555979205141     
0.0527701417516     
0.0527701417516     
0.0506433347862     
0.0506433347862     
0.0491225110889     
0.0491225110889     
0.0481424724089     
0.0481424724089     
0.0476621652161     
0.0476621652161     
0.0476621689502     
0.0476621689502     
0.0481427199507     
0.0481427199507     
0.0491229905576     