# vtk DataFile Version 3.0
PyPan mesh file. Generated by PyPan, USU AeroLab (c) 2020.
ASCII
DATASET POLYDATA
POINTS 1163 float
0.0                 0.0                 0.0                 
0.054949618876      0.0                 -0.132456049323     
0.054949618876      0.0                 0.132456049323      
0.227189257741      0.0                 -0.303494066        
0.227189257741      0.0                 0.303494066         
0.499539136887      0.0                 -0.448209911585     
0.499539136887      0.0                 0.448209911585      
0.57989782095       0.57989782095       0.0                 
0.634847462177      0.57989782095       -0.132456049323     
0.634847462177      0.57989782095       0.132456049323      
0.807087063789      0.57989782095       -0.303494066        
0.807087063789      0.57989782095       0.303494066         
0.901209950447      0.0                 -0.591220200062     
0.901209950447      0.0                 0.591220200062      
1.07943689823       0.57989782095       -0.448209911585     
1.07943689823       0.57989782095       0.448209911585      
1.32131123543       1.32131123543       0.0                 
1.37626087666       1.32131123543       -0.132456049323     
1.37626087666       1.32131123543       0.132456049323      
1.46172249317       0.0                 -0.735962748528     
1.46172249317       0.0                 0.735962748528      
1.48110771179       0.57989782095       -0.591220200062     
1.48110771179       0.57989782095       0.591220200062      
1.54850053787       1.32131123543       -0.303494066        
1.54850053787       1.32131123543       0.303494066         
1.82085037231       1.32131123543       -0.448209911585     
1.82085037231       1.32131123543       0.448209911585      
2.04162025452       0.57989782095       -0.735962748528     
2.04162025452       0.57989782095       0.735962748528      
2.21901988983       0.0                 -0.875949025154     
2.21901988983       0.0                 0.875949025154      
2.22252130508       1.32131123543       -0.591220200062     
2.22252130508       1.32131123543       0.591220200062      
2.26196575165       2.26196575165       0.0                 
2.31691527367       2.26196575165       -0.132456049323     
2.31691527367       2.26196575165       0.132456049323      
2.48915505409       2.26196575165       -0.303494066        
2.48915505409       2.26196575165       0.303494066         
2.76150488853       2.26196575165       -0.448209911585     
2.76150488853       2.26196575165       0.448209911585      
2.78303360939       1.32131123543       -0.735962748528     
2.78303360939       1.32131123543       0.735962748528      
2.79891777039       0.57989782095       -0.875949025154     
2.79891777039       0.57989782095       0.875949025154      
3.16317558289       2.26196575165       -0.591220200062     
3.16317558289       2.26196575165       0.591220200062      
3.20749473572       0.0                 -1.00191068649      
3.20749473572       0.0                 1.00191068649       
3.44382953644       3.44382953644       0.0                 
3.49877905846       3.44382953644       -0.132456049323     
3.49877905846       3.44382953644       0.132456049323      
3.54033112526       1.32131123543       -0.875949025154     
3.54033112526       1.32131123543       0.875949025154      
3.67101883888       3.44382953644       -0.303494066        
3.67101883888       3.44382953644       0.303494066         
3.72368812561       2.26196575165       -0.735962748528     
3.72368812561       2.26196575165       0.735962748528      
3.78739261627       0.57989782095       -1.00191068649      
3.78739261627       0.57989782095       1.00191068649       
3.94336867332       3.44382953644       -0.448209911585     
3.94336867332       3.44382953644       0.448209911585      
4.34503936768       3.44382953644       -0.591220200062     
4.34503936768       3.44382953644       0.591220200062      
4.44704532623       0.0                 -1.10028672218      
4.44704532623       0.0                 1.10028672218       
4.48098564148       2.26196575165       -0.875949025154     
4.48098564148       2.26196575165       0.875949025154      
4.52880620956       1.32131123543       -1.00191068649      
4.52880620956       1.32131123543       1.00191068649       
4.9055519104        3.44382953644       -0.735962748528     
4.9055519104        3.44382953644       0.735962748528      
4.91070652008       4.91070652008       0.0                 
4.96565628052       4.91070652008       -0.132456049323     
4.96565628052       4.91070652008       0.132456049323      
5.02694320679       0.57989782095       -1.10028672218      
5.02694320679       0.57989782095       1.10028672218       
5.13789606094       4.91070652008       -0.303494066        
5.13789606094       4.91070652008       0.303494066         
5.41024589539       4.91070652008       -0.448209911585     
5.41024589539       4.91070652008       0.448209911585      
5.46946048737       2.26196575165       -1.00191068649      
5.46946048737       2.26196575165       1.00191068649       
5.66284942627       3.44382953644       -0.875949025154     
5.66284942627       3.44382953644       0.875949025154      
5.76835632324       1.32131123543       -1.10028672218      
5.76835632324       1.32131123543       1.10028672218       
5.81191682816       4.91070652008       -0.591220200062     
5.81191682816       4.91070652008       0.591220200062      
5.93039751053       0.0                 -1.14102196693      
5.93039751053       0.0                 1.14102196693       
6.37242937088       4.91070652008       -0.735962748528     
6.37242937088       4.91070652008       0.735962748528      
6.51029539108       0.57989782095       -1.14102196693      
6.51029539108       0.57989782095       1.14102196693       
6.65132427216       3.44382953644       -1.00191068649      
6.65132427216       3.44382953644       1.00191068649       
6.70394468307       6.70394468307       0.0                 
6.70901107788       2.26196575165       -1.10028672218      
6.70901107788       2.26196575165       1.10028672218       
6.75889444351       6.70394468307       -0.132456049323     
6.75889444351       6.70394468307       0.132456049323      
6.93113422394       6.70394468307       -0.303494066        
6.93113422394       6.70394468307       0.303494066         
7.12972640991       4.91070652008       -0.875949025154     
7.12972640991       4.91070652008       0.875949025154      
7.20348405838       6.70394468307       -0.448209911585     
7.20348405838       6.70394468307       0.448209911585      
7.25170898438       1.32131123543       -1.14102196693      
7.25170898438       1.32131123543       1.14102196693       
7.60515451431       6.70394468307       -0.591220200062     
7.60515451431       6.70394468307       0.591220200062      
7.60912370682       0.0                 -1.09401702881      
7.60912370682       0.0                 1.09401702881       
7.89087486267       3.44382953644       -1.10028672218      
7.89087486267       3.44382953644       1.10028672218       
8.1182012558        4.91070652008       -1.00191068649      
8.1182012558        4.91070652008       1.00191068649       
8.16566753387       6.70394468307       -0.735962748528     
8.16566753387       6.70394468307       0.735962748528      
8.18902111053       0.57989782095       -1.09401702881      
8.18902111053       0.57989782095       1.09401702881       
8.19236278534       2.26196575165       -1.14102196693      
8.19236278534       2.26196575165       1.14102196693       
8.85597801208       8.85597801208       0.0                 
8.91092777252       8.85597801208       -0.132456049323     
8.91092777252       8.85597801208       0.132456049323      
8.92296409607       6.70394468307       -0.875949025154     
8.92296409607       6.70394468307       0.875949025154      
8.93043518066       1.32131123543       -1.09401702881      
8.93043518066       1.32131123543       1.09401702881       
9.08316707611       8.85597801208       -0.303494066        
9.08316707611       8.85597801208       0.303494066         
9.35551738739       8.85597801208       -0.448209911585     
9.35551738739       8.85597801208       0.448209911585      
9.35775184631       4.91070652008       -1.10028672218      
9.35775184631       4.91070652008       1.10028672218       
9.37422657013       3.44382953644       -1.14102196693      
9.37422657013       3.44382953644       1.14102196693       
9.39523696899       0.0                 -0.980761349201     
9.39523696899       0.0                 0.980761349201      
9.75718784332       8.85597801208       -0.591220200062     
9.75718784332       8.85597801208       0.591220200062      
9.87108898163       2.26196575165       -1.09401702881      
9.87108898163       2.26196575165       1.09401702881       
9.91143989563       6.70394468307       -1.00191068649      
9.91143989563       6.70394468307       1.00191068649       
9.97513484955       0.57989782095       -0.980761349201     
9.97513484955       0.57989782095       0.980761349201      
10.317700386        8.85597801208       -0.735962748528     
10.317700386        8.85597801208       0.735962748528      
10.716547966        1.32131123543       -0.980761349201     
10.716547966        1.32131123543       0.980761349201      
10.8411045074       4.91070652008       -1.14102196693      
10.8411045074       4.91070652008       1.14102196693       
11.0529527664       3.44382953644       -1.09401702881      
11.0529527664       3.44382953644       1.09401702881       
11.0749979019       8.85597801208       -0.875949025154     
11.0749979019       8.85597801208       0.875949025154      
11.1509895325       6.70394468307       -1.10028672218      
11.1509895325       6.70394468307       1.10028672218       
11.1782684326       0.0                 -0.826626718044     
[...]
CELL_DATA 2280
SCALARS panel_area float 1
LOOKUP_TABLE default
0.045859516356      
0.0458600648912     
0.0645227561266     
0.0645227561266     
0.0900478850577     
0.0900473349221     
0.124259891909      
0.124259891909      
0.168826073492      
0.168826073492      
0.224600532959      
0.224600532959      
0.290569060784      
0.290569060784      
0.362595214669      
0.362595494797      
0.43262412153       
0.43262412153       
0.489292668904      
0.489292387193      
0.520836761741      
0.520837042521      
0.519959673326      
0.519959809326      
0.48712629961       
0.487126161773      
0.430420580469      
0.430420580469      
0.36166304709       
0.36166304709       
0.291224085873      
0.291224085873      
0.226956417627      
0.226956449576      
0.173018400961      
0.173018400961      
0.130394291186      
0.130394291186      
0.0987784934514     
0.0987784844633     
0.0860979833159     
0.0860979788856     
0.0566022100186     
0.0566022108384     
0.0566022108384     
0.0566022100186     
0.0860979788856     
0.0860979833159     
0.0987784844633     
0.0987784934514     
0.130394291186      
0.130394291186      
0.173018400961      
0.173018400961      
0.226956449576      
0.226956417627      
0.291224085873      
0.291224085873      
0.36166304709       
0.36166304709       
0.430420580469      
0.430420580469      
0.487126161773      
0.48712629961       
0.519959809326      
0.519959673326      
0.520837042521      
0.520836761741      
0.489292387193      
0.489292668904      
0.43262412153       
0.43262412153       
0.362595494797      
0.362595214669      
0.290569060784      
0.290569060784      
0.224600532959      
0.224600532959      
0.168826073492      
0.168826073492      
0.124259891909      
0.124259891909      
0.0900473349221     
0.0900478850577     
0.0645227561266     
0.0645227561266     
0.0458600648912     
0.045859516356      
0.0586325035371     
0.0586325035371     
0.0824939050637     
0.0824939050637     
0.115127700925      
0.115128403367      
0.158869289107      
0.158869289107      
0.215848933542      
0.215848228226      
0.287156527967      
0.287157235347      
0.371499600205      
0.371499600205      
0.463587136335      
0.463586780069      
0.553120775838      
0.553120418404      
0.625572179164      
0.625572537129      
0.6659027821        
0.665902424873      
0.664781215217      
0.664780866507      
0.62280260083       
0.622802777145      
0.550303140884      
0.550303317251      
0.462394967018      
0.462394793204      
0.372337050693      
0.372337135792      
0.290169319938      
0.290169319938      
0.221208217998      
0.221208139163      
0.166712266414      
0.166712303174      
0.126290688116      
0.126290688116      
0.110078353609      
0.11007836349       
0.0723672979768     
0.0723672979768     
0.0723672979768     
0.0723672979768     
0.11007836349       
0.110078353609      
0.126290688116      
0.126290688116      
0.166712303174      
0.166712266414      
0.221208139163      
0.221208217998      
0.290169319938      
0.290169319938      
0.372337135792      
0.372337050693      
0.462394793204      
0.462394967018      
0.550303317251      
0.550303140884      
0.622802777145      
0.62280260083       
0.664780866507      
0.664781215217      
0.665902424873      
0.6659027821        
0.625572537129      
0.625572179164      
0.553120418404      
0.553120775838      
0.463586780069      
0.463587136335      
0.371499600205      
0.371499600205      
0.287157235347      
0.287156527967      
0.215848228226      
0.215848933542      
0.158869289107      
0.158869289107      
0.115128403367      
0.115127700925      
0.0824939050637     
0.0824939050637     
0.0586325035371     
0.0586325035371     
0.0743889017566     
0.0743889017566     
0.10466261253       
0.10466261253       
0.146067022991      
0.146066132668      
0.201562454596      
0.201562454596      
0.273853431301      
0.27385432448       
0.364325407587      
0.364324512363      
0.471333205092      
0.471333205092      
0.588167109819      
0.588167560006      
0.701761267575      
0.701761718968      
0.793683547022      
0.793683094994      
0.844851346676      
0.844851798207      
0.843428390411      
0.843428833747      
0.79016946974       
0.79016946974       
0.698187125313      
0.698186677645      
0.586654816386      
0.586655037407      
0.472395832805      
0.472395724332      
0.368146942906      
0.368146942906      
0.280653719116      
0.280653820261      
0.211513134958      
0.211513040224      
0.1602289655        
0.1602289655        
0.139659881697      
0.139659908346      
0.0918146615202     
0.091814651095      
0.091814651095      
0.0918146615202     
0.139659908346      
0.139659881697      
0.1602289655        
0.1602289655        
0.211513040224      
0.211513134958      
0.280653820261      
0.280653719116      
0.368146942906      
0.368146942906      
0.472395724332      
0.472395832805      
0.586655037407      
0.586654816386      
0.698186677645      
0.698187125313      
0.79016946974       
0.79016946974       
0.843428833747      
0.843428390411      
0.844851798207      
0.844851346676      
0.793683094994      
0.793683547022      
0.701761718968      
0.701761267575      
0.588167560006      
0.588167109819      
0.471333205092      
0.471333205092      
0.364324512363      
0.364325407587      
0.27385432448       
0.273853431301      
0.201562454596      
0.201562454596      
0.146066132668      
0.146067022991      
0.10466261253       
0.10466261253       
0.0743889017566     
0.0743889017566     
0.0934642285909     
0.0934642285909     
0.131500937793      
0.131500937793      
0.183522559197      
0.183522559197      
0.253248526511      
0.253248526511      
0.344076867402      
0.344076867402      
0.457748298066      
0.457748298066      
0.592195803414      
0.592195803414      
0.73898908527       
0.73898908527       
0.881712408324      
0.88171184318       
0.997204914204      
0.99720548011       
1.06149409644       
1.06149409644       
1.05970680998       
1.05970680998       
0.992790301417      
0.992790301417      
0.87722063196       
0.87722063196       
0.737089262862      
0.737089262862      
0.593530769321      
0.593530769321      
0.462549779753      
0.462549779753      
0.352621058482      
0.352621058482      
0.265750706493      
0.265750706493      
0.201316007454      
0.201316007454      
0.175472494902      
0.175472494902      
0.115358411799      
0.115358411799      
0.115358411799      
0.115358411799      
0.175472494902      
0.175472494902      
0.201316007454      
0.201316007454      
0.265750706493      
0.265750706493      
0.352621058482      
0.352621058482      
0.462549779753      
0.462549779753      
0.593530769321      
0.593530769321      
0.737089262862      
0.737089262862      
0.87722063196       
0.87722063196       
0.992790301417      
0.992790301417      
1.05970680998       
1.05970680998       
1.06149409644       
1.06149409644       
0.99720548011       
0.997204914204      
0.88171184318       
0.881712408324      
0.73898908527       
0.73898908527       
0.592195803414      
0.592195803414      
0.457748298066      
0.457748298066      
0.344076867402      
0.344076867402      
0.253248526511      
0.253248526511      
0.183522559197      
0.183522559197      
0.131500937793      
0.131500937793      
0.0934642285909     
0.0934642285909     
0.116003660894      
0.116003660894      
0.163213139669      
0.163213139669      
0.227780072061      
0.227780072061      
0.314319471266      
0.314320859023      
0.427054357631      
0.427052968279      
0.568136913387      
0.568136913387      
0.735007202198      
0.735007202198      
0.917200522002      
0.917200522002      
1.0943410057        
1.0943424048        
1.23768798299       
1.23768658206       
1.31747945777       
1.31747945777       
1.31526115697       
1.31526115697       
1.23220735035       
1.23220665207       
1.08876739586       
1.08876809426       
0.914842546575      
0.914842546575      
0.736664102754      
0.736664102754      
0.574096299795      
0.574095967403      
0.437657648187      
0.437657648187      
0.329838017353      
0.329838168116      
0.249864519274      
0.249864519274      
0.217788700548      
0.217788700548      
0.143177762088      
0.143177800596      
0.143177800596      
0.143177762088      
0.217788700548      
0.217788700548      
0.249864519274      
0.249864519274      
0.329838168116      
0.329838017353      
0.437657648187      
0.437657648187      
0.574095967403      
0.574096299795      
0.736664102754      
0.736664102754      
0.914842546575      
0.914842546575      
1.08876809426       
1.08876739586       
1.23220665207       
1.23220735035       
1.31526115697       
1.31526115697       
1.31747945777       
1.31747945777       
1.23768658206       
1.23768798299       
1.0943424048        
1.0943410057        
0.917200522002      
0.917200522002      
0.735007202198      
0.735007202198      
0.568136913387      
0.568136913387      
0.427052968279      
0.427054357631      
0.314320859023      
0.314319471266      
0.227780072061      
0.227780072061      
0.163213139669      
0.163213139669      
0.116003660894      
0.116003660894      
0.14181466921       
0.141812976458      
0.199525954224      
0.199525954224      
0.278456503752      
0.278458198047      
0.384253187515      
0.384251492017      
0.522066735377      
0.522068432452      
0.694540043556      
0.694540043556      
0.898536817863      
0.898536817863      
1.1212674903        
1.12126578612       
1.33781773858       
1.33781773858       
1.51305585384       
1.51305756292       
1.61060247579       
1.61060162072       
1.60788977521       
1.60788977521       
1.50635671372       
1.50635756751       
1.33100492997       
1.33100492997       
1.11838319316       
1.11838234711       
0.90056235296       
0.900563186954      
0.70182489056       
0.701824482888      
0.535030810897      
0.535031204125      
0.403222882114      
0.40322251109       
0.305456138038      
0.305456138038      
0.26624385861       
0.26624385861       
0.17503301162       
0.17503301162       
0.17503301162       
0.17503301162       
0.26624385861       
0.26624385861       
0.305456138038      
0.305456138038      
0.40322251109       
0.403222882114      
0.535031204125      
0.535030810897      
0.701824482888      
0.70182489056       
0.900563186954      
0.90056235296       
1.11838234711       
1.11838319316       
1.33100492997       
1.33100492997       
1.50635756751       
1.50635671372       
1.60788977521       
1.60788977521       
1.61060162072       
1.61060247579       
1.51305756292       
1.51305585384       
1.33781773858       
1.33781773858       
1.12126578612       
1.1212674903        
0.898536817863      
0.898536817863      
0.694540043556      
0.694540043556      
0.522068432452      
0.522066735377      
0.384251492017      
0.384253187515      
0.278458198047      
0.278456503752      
0.199525954224      
0.199525954224      
0.141812976458      
0.14181466921       
0.170189268513      
0.170189268513      
0.239445531211      
0.23944756296       
0.334172746494      
0.33417071386       
0.461135433065      
0.461135433065      
0.626523034276      
0.626523034276      
0.833505183877      
0.833505183877      
1.07831809335       
1.07831809335       
1.34561119288       
1.34561323533       
1.60549339742       
1.60549135211       
1.81579150764       
1.81579150764       
1.93285546405       
1.93285546405       
1.92960001092       
1.92960001092       
1.80775301223       
1.80775198749       
1.59731542108       
1.59731542108       
1.34215082779       
1.34215184386       
1.0807499163        
1.08074891393       
0.842247125988      
0.842248106856      
0.64208146475       
0.642080991169      
0.483900187259      
0.483900187259      
0.366572496154      
0.366572891679      
0.319514511277      
0.319514237153      
0.210054014272      
0.210054014272      
0.210054014272      
0.210054014272      
0.319514237153      
0.319514511277      
0.366572891679      
0.366572496154      
0.483900187259      
0.483900187259      
0.642080991169      
0.64208146475       
0.842248106856      
0.842247125988      
1.08074891393       
1.0807499163        
1.34215184386       
1.34215082779       
1.59731542108       
1.59731542108       
1.80775198749       
1.80775301223       
1.92960001092       
1.92960001092       
1.93285546405       
1.93285546405       
1.81579150764       
1.81579150764       
1.60549135211       
1.60549339742       
1.34561323533       
1.34561119288       
1.07831809335       
1.07831809335       
0.833505183877      
0.833505183877      
0.626523034276      
0.626523034276      
0.461135433065      
0.461135433065      
0.33417071386       
0.334172746494      
0.23944756296       
0.239445531211      
0.170189268513      
0.170189268513      
0.199765565454      
0.199765565454      
0.281059891485      
0.281057507058      
0.39224447954       
0.39224686484       
0.541273732143      
0.541273732143      
0.735403173827      
0.735403173827      
0.978355661492      
0.978355661492      
1.26571331762       
1.26571331762       
1.57945787764       
1.57945787764       
1.88450362379       
1.88450362379       
2.13134835315       
2.13134835315       
2.26875623692       
2.26875623692       
2.26493503405       
2.26493503405       
2.12191168212       
2.12191288506       
1.87490445291       
1.87490324985       
1.57539734477       
1.57539734477       
1.26856657007       
1.26856657007       
0.988617975546      
0.988617975546      
0.753664864261      
0.753664864261      
0.567994651706      
0.567994651706      
0.430277680689      
0.430277680689      
0.375040933286      
0.375040933286      
0.246558194886      
0.246558194886      
0.246558194886      
0.246558194886      
0.375040933286      
0.375040933286      
0.430277680689      
0.430277680689      
0.567994651706      
0.567994651706      
0.753664864261      
0.753664864261      
0.988617975546      
0.988617975546      
1.26856657007       
1.26856657007       
1.57539734477       
1.57539734477       
1.87490324985       
1.87490445291       
2.12191288506       
2.12191168212       
2.26493503405       
2.26493503405       
2.26875623692       
2.26875623692       
2.13134835315       
2.13134835315       
1.88450362379       
1.88450362379       
1.57945787764       
1.57945787764       
1.26571331762       
1.26571331762       
0.978355661492      
0.978355661492      
0.735403173827      
0.735403173827      
0.541273732143      
0.541273732143      
0.39224686484       
0.39224447954       
0.281057507058      
0.281059891485      
0.199765565454      
0.199765565454      
0.228470645044      
0.228473371162      
0.321450299811      
0.321450299811      
0.448615672763      
0.448612945152      
0.619058810849      
0.619058810849      
0.841086103479      
0.841086103479      
1.11895267851       
1.11895267851       
1.44760577644       
1.44760577644       
1.80643777344       
1.80643777344       
2.15532087206       
2.15532087206       
2.437639033         
2.437639033         
2.59479345612       
2.59479345612       
2.59042311785       
2.59042311785       
2.42684761837       
2.42684761837       
2.14434085266       
2.14433947663       
1.80179371537       
1.80179508067       
1.45086906258       
1.45086771435       
1.1306897757        
1.13069109657       
0.861972135246      
0.861972135246      
0.649619726163      
0.649619726163      
0.492111797644      
0.492111797644      
0.428937117012      
0.428937117012      
0.281990449319      
0.281990449319      
0.281990449319      
0.281990449319      
0.428937117012      
0.428937117012      
0.492111797644      
0.492111797644      
0.649619726163      
0.649619726163      
0.861972135246      
0.861972135246      
1.13069109657       
1.1306897757        
1.45086771435       
1.45086906258       
1.80179508067       
1.80179371537       
2.14433947663       
2.14434085266       
2.42684761837       
2.42684761837       
2.59042311785       
2.59042311785       
2.59479345612       
2.59479345612       
2.437639033         
2.437639033         
2.15532087206       
2.15532087206       
1.80643777344       
1.80643777344       
1.44760577644       
1.44760577644       
1.11895267851       
1.11895267851       
0.841086103479      
0.841086103479      
0.619058810849      
0.619058810849      
0.448612945152      
0.448615672763      
0.321450299811      
0.321450299811      
0.228473371162      
0.228470645044      
0.253679909947      
0.253673856628      
0.356904294812      
0.356910349376      
0.498103677591      
0.498103677591      
0.687348863003      
0.687348863003      
0.933868586929      
0.933868586929      
1.24239039979       
1.24238736718       
1.60729205094       
1.60729508582       
2.00571081115       
2.00571081115       
2.39308014821       
2.39308014821       
2.70654158923       
2.70654158923       
2.88103214191       
2.88103214191       
2.8761796998        
2.8761796998        
2.69455974446       
2.69455974446       
2.38088736475       
2.38089042051       
2.00055596299       
2.00055293034       
1.61091684856       
1.61091984413       
1.25542066639       
1.2554191985        
0.957058596621      
0.957058596621      
0.721281013875      
0.721281013875      
0.54639795203       
0.54639795203       
0.476254283809      
0.476254283809      
0.313097535792      
0.313097148102      
0.313097148102      
0.313097535792      
0.476254283809      
0.476254283809      
0.54639795203       
0.54639795203       
0.721281013875      
0.721281013875      
0.957058596621      
0.957058596621      
1.2554191985        
1.25542066639       
1.61091984413       
1.61091684856       
2.00055293034       
2.00055596299       
2.38089042051       
2.38088736475       
2.69455974446       
2.69455974446       
2.8761796998        
2.8761796998        
2.88103214191       
2.88103214191       
2.70654158923       
2.70654158923       
2.39308014821       
2.39308014821       
2.00571081115       
2.00571081115       
1.60729508582       
1.60729205094       
1.24238736718       
1.24239039979       
0.933868586929      
0.933868586929      
0.687348863003      
0.687348863003      
0.498103677591      
0.498103677591      
0.356910349376      
0.356904294812      
0.253673856628      
0.253679909947      
0.272561693649      
0.272561693649      
0.38347573258       
0.383469227717      
0.535171789621      
0.53517829618       
0.738509290214      
0.738509290214      
1.00338435363       
1.0033778418        
1.33485690226       
1.33486341767       
1.72692526871       
1.72692526871       
2.15500543348       
2.1549989078        
2.57119748187       
2.57120074807       
2.90799685577       
2.90799358565       
3.09546847662       
3.09547175177       
3.090258135         
3.090258135         
2.89511992979       
2.89511992979       
2.55810372152       
2.55810043824       
2.149457139         
2.14946039792       
1.73082307759       
1.73081985794       
1.34886199802       
1.34886199802       
1.02829397695       
1.02829397695       
0.774967124849      
0.774967124849      
0.587067273832      
0.587067273832      
0.511702759869      
0.511702759869      
0.336401531362      
0.336402370841      
0.336402370841      
0.336401531362      
0.511702759869      
0.511702759869      
0.587067273832      
0.587067273832      
0.774967124849      
0.774967124849      
1.02829397695       
1.02829397695       
1.34886199802       
1.34886199802       
1.73081985794       
1.73082307759       
2.14946039792       
2.149457139         
2.55810043824       
2.55810372152       
2.89511992979       
2.89511992979       
3.090258135         
3.090258135         
3.09547175177       
3.09546847662       
2.90799358565       